# For a description of the Tecplot format see the Tecplot User's guide.
#
Variables=x,y,z,u,v,w,p,T
Zone f=fepoint, n=16513, e=15360, et=brick, c=black
-0.00117558 -0.00117558 0.00000 0.0000000000000000 0.0000000000000000 0.010000000000000000 202.48338415358796 0.0000000000000000 
-0.00069195489093399677 -0.0012287767927745938 0.0000000000000000 0.0000000000000000 0.0000000000000000 0.010000000000000000 202.48188790824364 0.0000000000000000 
-0.00063950470092029852 -0.00063950470092029852 0.0000000000000000 0.0000000000000000 0.0000000000000000 0.010000000000000000 202.48030218142918 0.0000000000000000 
-0.0012287767927745938 -0.00069195489093399677 0.0000000000000000 0.0000000000000000 0.0000000000000000 0.010000000000000000 202.48188790824409 0.0000000000000000 
-0.0011755764485346602 -0.0011755764485346602 0.0024999999999999996 0.00092090133447735273 0.00092090133448196926 0.010209194126006493 202.61280965103003 -2.0950173256824992e-05 
-0.00069195489093399677 -0.0012287767927745938 0.0024999999999999996 0.00056573263897034007 0.00099680439654478573 0.010182952475805364 202.61224608713280 -2.5851132968785109e-05 
-0.00063950470092029852 -0.00063950470092029852 0.0024999999999999996 0.00054675334258223664 0.00054675334260508187 0.010111914138948892 202.61133514099532 -3.1085086936473967e-06 
-0.0012287767927745938 -0.00069195489093399677 0.0024999999999999996 0.00099680439654260496 0.00056573263898167540 0.010182952475806549 202.61224608713246 -2.5851132969048187e-05 
-0.00093376566973432846 -0.0012021766206546270 0.0000000000000000 0.0000000000000000 0.0000000000000000 0.0099999999999999967 202.48263603091578 0.0000000000000000 
-0.00066572979592714764 -0.00093414074684744616 0.0000000000000000 0.0000000000000000 0.0000000000000000 0.010000000000000000 202.48109504483642 0.0000000000000000 
-0.00093414074684744616 -0.00066572979592714764 0.0000000000000000 0.0000000000000000 0.0000000000000000 0.010000000000000004 202.48109504483665 0.0000000000000000 
-0.0012021766206546270 -0.00093376566973432846 0.0000000000000000 0.0000000000000000 0.0000000000000000 0.010000000000000000 202.48263603091601 0.0000000000000000 
-0.0011755764485346602 -0.0011755764485346602 0.0012499999999999998 0.00081696757954749684 0.00081696757952932583 0.011838907192279830 202.54809690230900 1.5911012166969828e-05 
-0.00069195489093399677 -0.0012287767927745938 0.0012499999999999998 0.00046184593044971213 0.00082840126301467231 0.011749443576982330 202.54706699768820 2.4403435830682714e-05 
-0.00063950470092029852 -0.00063950470092029852 0.0012499999999999998 0.00040433931150753155 0.00040433931151364613 0.011615681139074307 202.54581866121225 1.0630221888744539e-05 
-0.0012287767927745938 -0.00069195489093399677 0.0012499999999999998 0.00082840126303016209 0.00046184593043948973 0.011749443576987499 202.54706699768826 2.4403435830665733e-05 
-0.00093376566973432846 -0.0012021766206546270 0.0024999999999999996 0.00075179090215970839 0.00096055396724498035 0.010196354123414143 202.61252786908142 -2.5487708121919051e-05 
-0.00066572979592714764 -0.00093414074684744616 0.0024999999999999996 0.00055945727055140048 0.00078484015977751129 0.010146535378546555 202.61179061406406 -2.1271324951665944e-05 
-0.00093414074684744616 -0.00066572979592714764 0.0024999999999999996 0.00078484015976497499 0.00055945727056960315 0.010146535378544253 202.61179061406389 -2.1271324951971645e-05 
-0.0012021766206546270 -0.00093376566973432846 0.0024999999999999996 0.00096055396725696089 0.00075179090215965764 0.010196354123416943 202.61252786908125 -2.5487708121980237e-05 
-0.00093395320829088731 -0.00093395320829088731 0.0000000000000000 0.0000000000000000 0.0000000000000000 0.010000000000000002 202.48186553787622 0.0000000000000000 
-0.00093376566973432835 -0.0012021766206546270 0.0012499999999999998 0.00063361853633996166 0.00082253086561783059 0.011786787750110666 202.54758194999860 2.2238587194111568e-05 
-0.00066572979592714764 -0.00093414074684744605 0.0012499999999999998 0.00043056505096127746 0.00060460662366830140 0.011671385345917802 202.54644282945026 2.6165109515831036e-05 
-0.00093414074684744616 -0.00066572979592714764 0.0012499999999999998 0.00060460662367440947 0.00043056505094493804 0.011671385345921836 202.54644282945026 2.6165109516086678e-05 
-0.0012021766206546270 -0.00093376566973432835 0.0012499999999999998 0.00082253086563230252 0.00063361853632161328 0.011786787750111780 202.54758194999863 2.2238587194025848e-05 
-0.00093395320829088731 -0.00093395320829088731 0.0024999999999999996 0.00077146438655261655 0.00077146438655589897 0.010171266115701039 202.61215924157267 -2.7319999435190383e-05 
-0.00093395320829088731 -0.00093395320829088731 0.0012499999999999998 0.00061682564306545103 0.00061682564305335665 0.011720031903423318 202.54701238972444 2.8693195691492712e-05 
0.0000000000000000 -0.0012298938036811942 0.0000000000000000 0.0000000000000000 0.0000000000000000 0.010000000000000000 202.48065193266720 0.0000000000000000 
0.0000000000000000 -0.00062164896728019912 0.0000000000000000 0.0000000000000000 0.0000000000000000 0.010000000000000000 202.47923402293401 0.0000000000000000 
0.0000000000000000 -0.0012298938036811942 0.0024999999999999996 2.6342077977472746e-16 0.0010166612135504812 0.010158243457628035 202.61198226727868 -2.0270184159921678e-05 
0.0000000000000000 -0.00062164896728019912 0.0024999999999999996 -4.4564206122032158e-16 0.00053831294429078456 0.010077586404248830 202.61109947314711 2.9528838564907643e-05 
-0.00034597744546699838 -0.0012293352982278940 0.0000000000000000 0.0000000000000000 0.0000000000000000 0.010000000000000002 202.48126992045542 0.0000000000000000 
0.0000000000000000 -0.00092577138548069666 0.0000000000000000 0.0000000000000000 0.0000000000000000 0.010000000000000002 202.47994297780059 0.0000000000000000 
-0.00031975235046014926 -0.00063057683410024882 0.0000000000000000 0.0000000000000000 0.0000000000000000 0.0099999999999999985 202.47976810218159 0.0000000000000000 
0.0000000000000000 -0.0012298938036811942 0.0012499999999999998 -2.9215738874928604e-15 0.00081227329410141138 0.011694156946410347 202.54631709997295 2.1478254279844444e-05 
0.0000000000000000 -0.00062164896728019912 0.0012499999999999998 -6.6253012899164261e-15 0.00038526293068659310 0.011566559132627600 202.54516674804057 -2.6363504327879952e-05 
-0.00034597744546699838 -0.0012293352982278940 0.0024999999999999996 0.00028677619716116406 0.0010118186301611351 0.010165190473694293 202.61211417720574 -2.2507875155629334e-05 
0.0000000000000000 -0.00092577138548069666 0.0024999999999999996 -4.7783903137796543e-16 0.00079006155679678326 0.010115045422500690 202.61154087021291 -2.8583347997007024e-06 
-0.00031975235046014926 -0.00063057683410024882 0.0024999999999999996 0.00027489996611786491 0.00054440316676956750 0.010087165949965577 202.61121730707123 1.9094599865275542e-05 
-0.00033286489796357382 -0.00092995606616407141 0.0000000000000000 0.0000000000000000 0.0000000000000000 0.0099999999999999985 202.48051901131851 0.0000000000000000 
-0.00034597744546699838 -0.0012293352982278940 0.0012499999999999998 0.00022924131037476995 0.00081663288490343739 0.011708357891184944 202.54669204883058 2.3157410257041659e-05 
0.0000000000000000 -0.00092577138548069677 0.0012499999999999998 1.3600178416277012e-14 0.00058626634178948571 0.011618507953410052 202.54574192400673 8.8523961574304237e-06 
-0.00031975235046014926 -0.00063057683410024882 0.0012499999999999998 0.00020157301608174439 0.00039296822126273702 0.011579813670409332 202.54549270462641 -1.3853789599607052e-05 
-0.00033286489796357382 -0.00092995606616407141 0.0024999999999999996 0.00028215850060974291 0.00079072301961519663 0.010123833246947482 202.61166574213848 -8.9960404536843256e-06 
-0.00033286489796357382 -0.00092995606616407141 0.0012499999999999998 0.00021434636516669825 0.00059240116504831605 0.011632561916825226 202.54609237672850 1.5150453359307812e-05 
-0.00062164896728019912 0.0000000000000000 0.0000000000000000 0.0000000000000000 0.0000000000000000 0.010000000000000000 202.47923402293398 0.0000000000000000 
-0.0012298938036811942 0.0000000000000000 0.0000000000000000 0.0000000000000000 0.0000000000000000 0.010000000000000000 202.48065193266726 0.0000000000000000 
-0.00062164896728019912 0.0000000000000000 0.0024999999999999996 0.00053831294429453720 1.3589667064873296e-14 0.010077586404247199 202.61109947314708 2.9528838564129877e-05 
-0.0012298938036811942 0.0000000000000000 0.0024999999999999996 0.0010166612135429516 4.9750026398823399e-15 0.010158243457630249 202.61198226727836 -2.0270184160830903e-05 
-0.00063057683410024882 -0.00031975235046014926 0.0000000000000000 0.0000000000000000 0.0000000000000000 0.010000000000000002 202.47976810218159 0.0000000000000000 
-0.00092577138548069666 0.0000000000000000 0.0000000000000000 0.0000000000000000 0.0000000000000000 0.010000000000000002 202.47994297780062 0.0000000000000000 
-0.0012293352982278940 -0.00034597744546699838 0.0000000000000000 0.0000000000000000 0.0000000000000000 0.010000000000000000 202.48126992045567 0.0000000000000000 
-0.00062164896728019912 0.0000000000000000 0.0012499999999999998 0.00038526293069862818 -1.3884503736570659e-15 0.011566559132629259 202.54516674804051 -2.6363504326062626e-05 
-0.0012298938036811942 0.0000000000000000 0.0012499999999999998 0.00081227329410363583 -5.2676733481664112e-15 0.011694156946415114 202.54631709997284 2.1478254280647174e-05 
-0.00063057683410024882 -0.00031975235046014926 0.0024999999999999996 0.00054440316677779562 0.00027489996613081641 0.010087165949963745 202.61121730707120 1.9094599864728576e-05 
-0.00092577138548069666 0.0000000000000000 0.0024999999999999996 0.00079006155679186240 2.5466119754536901e-14 0.010115045422503204 202.61154087021274 -2.8583348008980631e-06 
-0.0012293352982278940 -0.00034597744546699838 0.0024999999999999996 0.0010118186301556844 0.00028677619717507410 0.010165190473695799 202.61211417720543 -2.2507875156281167e-05 
-0.00092995606616407141 -0.00033286489796357382 0.0000000000000000 0.0000000000000000 0.0000000000000000 0.010000000000000000 202.48051901131862 0.0000000000000000 
-0.00063057683410024882 -0.00031975235046014926 0.0012499999999999998 0.00039296822125644833 0.00020157301607987848 0.011579813670412109 202.54549270462638 -1.3853789598680621e-05 
-0.00092577138548069666 0.0000000000000000 0.0012499999999999998 0.00058626634180295313 -1.0122632113835128e-14 0.011618507953413010 202.54574192400668 8.8523961591034442e-06 
-0.0012293352982278940 -0.00034597744546699838 0.0012499999999999998 0.00081663288489906860 0.00022924131036732533 0.011708357891191906 202.54669204883055 2.3157410257575953e-05 
-0.00092995606616407141 -0.00033286489796357382 0.0024999999999999996 0.00079072301960812883 0.00028215850062457111 0.010123833246939058 202.61166574213831 -8.9960404545001318e-06 
-0.00092995606616407141 -0.00033286489796357382 0.0012499999999999998 0.00059240116504873542 0.00021434636515933687 0.011632561916831428 202.54609237672847 1.5150453360385041e-05 
0.0000000000000000 0.0000000000000000 0.0000000000000000 0.0000000000000000 0.0000000000000000 0.010000000000000000 202.47830949065491 0.0000000000000000 
0.0000000000000000 0.0000000000000000 0.0024999999999999996 8.9266633637134688e-15 2.5894358838191964e-15 0.010043614365659884 202.61089474578910 7.5336637577406816e-05 
0.0000000000000000 -0.00031082448364009956 0.0000000000000000 0.0000000000000000 0.0000000000000000 0.010000000000000004 202.47877175679446 0.0000000000000000 
-0.00031082448364009956 0.0000000000000000 0.0000000000000000 0.0000000000000000 0.0000000000000000 0.010000000000000002 202.47877175679446 0.0000000000000000 
0.0000000000000000 0.0000000000000000 0.0012499999999999998 1.3538709739022469e-14 -2.5332877429403948e-15 0.011523120422174663 202.54460211822200 -8.5263068205199342e-05 
0.0000000000000000 -0.00031082448364009956 0.0024999999999999996 2.0322100827530535e-14 0.00027008665509762204 0.010052512813672865 202.61099710946812 6.1964334893103325e-05 
-0.00031082448364009956 0.0000000000000000 0.0024999999999999996 0.00027008665510364072 7.6996631880456038e-15 0.010052512813676046 202.61099710946809 6.1964334892861060e-05 
-0.00031528841705012441 -0.00031528841705012441 0.0000000000000000 0.0000000000000000 0.0000000000000000 0.010000000000000005 202.47926992948800 0.0000000000000000 
0.0000000000000000 -0.00031082448364009956 0.0012499999999999998 7.0227260079957722e-15 0.00019215648329636467 0.011534297919852249 202.54488443313130 -6.7300923744508724e-05 
-0.00031082448364009956 0.0000000000000000 0.0012499999999999998 0.00019215648330528405 1.0895801425345826e-14 0.011534297919852785 202.54488443313127 -6.7300923743580281e-05 
-0.00031528841705012441 -0.00031528841705012441 0.0024999999999999996 0.00027328567148230429 0.00027328567149060852 0.010061736929459617 202.61110720826966 4.9130877791096963e-05 
-0.00031528841705012441 -0.00031528841705012441 0.0012499999999999998 0.00019596491332583857 0.00019596491332808238 0.011546175787522258 202.54518856887881 -5.0526680626430959e-05 
0.00069195489093399677 -0.0012287767927745938 0.0000000000000000 0.0000000000000000 0.0000000000000000 0.010000000000000000 202.48188790824400 0.0000000000000000 
0.00063950470092029852 -0.00063950470092029863 0.0000000000000000 0.0000000000000000 0.0000000000000000 0.010000000000000000 202.48030218142898 0.0000000000000000 
0.00069195489093399677 -0.0012287767927745938 0.0024999999999999996 -0.00056573263898751080 0.00099680439656073001 0.010182952475814680 202.61224608713269 -2.5851132968878310e-05 
0.00063950470092029852 -0.00063950470092029863 0.0024999999999999996 -0.00054675334259797633 0.00054675334259808410 0.010111914138946390 202.61133514099552 -3.1085086931063882e-06 
0.00034597744546699838 -0.0012293352982278940 0.0000000000000000 0.0000000000000000 0.0000000000000000 0.0099999999999999950 202.48126992045559 0.0000000000000000 
0.00066572979592714764 -0.00093414074684744627 0.0000000000000000 0.0000000000000000 0.0000000000000000 0.0099999999999999950 202.48109504483648 0.0000000000000000 
0.00031975235046014926 -0.00063057683410024882 0.0000000000000000 0.0000000000000000 0.0000000000000000 0.010000000000000007 202.47976810218148 0.0000000000000000 
0.00069195489093399677 -0.0012287767927745938 0.0012499999999999998 -0.00046184593044991433 0.00082840126300946825 0.011749443576984384 202.54706699768835 2.4403435831077642e-05 
0.00063950470092029852 -0.00063950470092029863 0.0012499999999999998 -0.00040433931151670954 0.00040433931150767337 0.011615681139072213 202.54581866121225 1.0630221887864090e-05 
0.00034597744546699838 -0.0012293352982278940 0.0024999999999999996 -0.00028677619716542746 0.0010118186301742672 0.010165190473702785 202.61211417720568 -2.2507875155517736e-05 
0.00066572979592714764 -0.00093414074684744627 0.0024999999999999996 -0.00055945727057019902 0.00078484015978001558 0.010146535378545667 202.61179061406409 -2.1271324951388572e-05 
0.00031975235046014926 -0.00063057683410024882 0.0024999999999999996 -0.00027489996611276650 0.00054440316677033707 0.010087165949963008 202.61121730707134 1.9094599865672181e-05 
0.00033286489796357382 -0.00092995606616407152 0.0000000000000000 0.0000000000000000 0.0000000000000000 0.0099999999999999950 202.48051901131856 0.0000000000000000 
0.00034597744546699838 -0.0012293352982278940 0.0012499999999999998 -0.00022924131037137997 0.00081663288488084413 0.011708357891184167 202.54669204883064 2.3157410257146620e-05 
0.00066572979592714764 -0.00093414074684744627 0.0012499999999999998 -0.00043056505095068935 0.00060460662366288505 0.011671385345919338 202.54644282945029 2.6165109515878453e-05 
0.00031975235046014926 -0.00063057683410024893 0.0012499999999999998 -0.00020157301607678471 0.00039296822123683001 0.011579813670408083 202.54549270462638 -1.3853789600910337e-05 
0.00033286489796357382 -0.00092995606616407152 0.0024999999999999996 -0.00028215850061830128 0.00079072301961253795 0.010123833246940994 202.61166574213848 -8.9960404532643378e-06 
0.00033286489796357382 -0.00092995606616407141 0.0012499999999999998 -0.00021434636516071181 0.00059240116503770301 0.011632561916826871 202.54609237672852 1.5150453358871066e-05 
0.0011755764485346602 -0.0011755764485346602 0.0000000000000000 0.0000000000000000 0.0000000000000000 0.010000000000000000 202.48338415358882 0.0000000000000000 
0.0012287767927745938 -0.00069195489093399677 0.0000000000000000 0.0000000000000000 0.0000000000000000 0.010000000000000000 202.48188790824386 0.0000000000000000 
0.0011755764485346602 -0.0011755764485346602 0.0024999999999999996 -0.00092090133448755984 0.00092090133448764668 0.010209194126013049 202.61280965102978 -2.0950173257186183e-05 
0.0012287767927745938 -0.00069195489093399677 0.0024999999999999996 -0.00099680439654569125 0.00056573263897119984 0.010182952475810665 202.61224608713272 -2.5851132969241836e-05 
0.00093376566973432846 -0.0012021766206546270 0.0000000000000000 0.0000000000000000 0.0000000000000000 0.010000000000000009 202.48263603091641 0.0000000000000000 
0.0012021766206546270 -0.00093376566973432846 0.0000000000000000 0.0000000000000000 0.0000000000000000 0.0099999999999999985 202.48263603091632 0.0000000000000000 
0.00093414074684744616 -0.00066572979592714764 0.0000000000000000 0.0000000000000000 0.0000000000000000 0.010000000000000005 202.48109504483642 0.0000000000000000 
0.0011755764485346602 -0.0011755764485346602 0.0012499999999999998 -0.00081696757954017566 0.00081696757954338370 0.011838907192282682 202.54809690230928 1.5911012167400582e-05 
0.0012287767927745938 -0.00069195489093399677 0.0012499999999999998 -0.00082840126301942675 0.00046184593044086027 0.011749443576982793 202.54706699768829 2.4403435831137402e-05 
0.00093376566973432846 -0.0012021766206546270 0.0024999999999999996 -0.00075179090215927817 0.00096055396725750050 0.010196354123422660 202.61252786908125 -2.5487708122227822e-05 
0.0012021766206546270 -0.00093376566973432846 0.0024999999999999996 -0.00096055396726370181 0.00075179090215598599 0.010196354123424541 202.61252786908125 -2.5487708122338963e-05 
0.00093414074684744616 -0.00066572979592714764 0.0024999999999999996 -0.00078484015977010370 0.00055945727055825632 0.010146535378546335 202.61179061406412 -2.1271324951805319e-05 
0.00093395320829088731 -0.00093395320829088731 0.0000000000000000 0.0000000000000000 0.0000000000000000 0.010000000000000002 202.48186553787642 0.0000000000000000 
0.00093376566973432846 -0.0012021766206546270 0.0012499999999999998 -0.00063361853633275367 0.00082253086561753265 0.011786787750112101 202.54758194999883 2.2238587194696193e-05 
0.0012021766206546270 -0.00093376566973432835 0.0012499999999999998 -0.00082253086562171615 0.00063361853633504318 0.011786787750110623 202.54758194999880 2.2238587194613299e-05 
0.00093414074684744616 -0.00066572979592714764 0.0012499999999999998 -0.00060460662367046254 0.00043056505095360087 0.011671385345917915 202.54644282945026 2.6165109516213495e-05 
0.00093395320829088731 -0.00093395320829088731 0.0024999999999999996 -0.00077146438656005363 0.00077146438655688993 0.010171266115707863 202.61215924157267 -2.7319999435320162e-05 
0.00093395320829088731 -0.00093395320829088731 0.0012499999999999998 -0.00061682564306234035 0.00061682564305951882 0.011720031903422841 202.54701238972456 2.8693195692069453e-05 
0.00062164896728019912 0.0000000000000000 0.0000000000000000 0.0000000000000000 0.0000000000000000 0.010000000000000000 202.47923402293387 0.0000000000000000 
0.00062164896728019912 0.0000000000000000 0.0024999999999999996 -0.00053831294427772209 2.5169532867501386e-15 0.010077586404244420 202.61109947314719 2.9528838563776166e-05 
0.00063057683410024882 -0.00031975235046014932 0.0000000000000000 0.0000000000000000 0.0000000000000000 0.010000000000000000 202.47976810218142 0.0000000000000000 
0.00031082448364009956 0.0000000000000000 0.0000000000000000 0.0000000000000000 0.0000000000000000 0.010000000000000004 202.47877175679440 0.0000000000000000 
0.00062164896728019912 0.0000000000000000 0.0012499999999999998 -0.00038526293068472280 -1.3008626802703807e-14 0.011566559132627914 202.54516674804051 -2.6363504326185517e-05 
0.00063057683410024882 -0.00031975235046014932 0.0024999999999999996 -0.00054440316675141394 0.00027489996611645826 0.010087165949964050 202.61121730707134 1.9094599865028124e-05 
0.00031082448364009956 0.0000000000000000 0.0024999999999999996 -0.00027008665508582137 2.8095413891790309e-15 0.010052512813676164 202.61099710946814 6.1964334892522112e-05 
0.00031528841705012441 -0.00031528841705012441 0.0000000000000000 0.0000000000000000 0.0000000000000000 0.010000000000000002 202.47926992948794 0.0000000000000000 
0.00063057683410024882 -0.00031975235046014932 0.0012499999999999998 -0.00039296822124739941 0.00020157301607032080 0.011579813670409129 202.54549270462638 -1.3853789599847597e-05 
0.00031082448364009956 0.0000000000000000 0.0012499999999999998 -0.00019215648328483462 2.0568835074004286e-15 0.011534297919852556 202.54488443313127 -6.7300923743952867e-05 
0.00031528841705012441 -0.00031528841705012441 0.0024999999999999996 -0.00027328567146424321 0.00027328567148494497 0.010061736929458755 202.61110720826974 4.9130877791226593e-05 
0.00031528841705012441 -0.00031528841705012446 0.0012499999999999998 -0.00019596491332406880 0.00019596491331702964 0.011546175787521677 202.54518856887887 -5.0526680627744707e-05 
0.0012298938036811942 0.0000000000000000 0.0000000000000000 0.0000000000000000 0.0000000000000000 0.010000000000000000 202.48065193266734 0.0000000000000000 
0.0012298938036811942 0.0000000000000000 0.0024999999999999996 -0.0010166612135325233 -5.5921711476230462e-15 0.010158243457625234 202.61198226727885 -2.0270184161102184e-05 
0.0012293352982278940 -0.00034597744546699838 0.0000000000000000 0.0000000000000000 0.0000000000000000 0.010000000000000002 202.48126992045559 0.0000000000000000 
0.00092577138548069666 0.0000000000000000 0.0000000000000000 0.0000000000000000 0.0000000000000000 0.0099999999999999985 202.47994297780059 0.0000000000000000 
0.0012298938036811942 0.0000000000000000 0.0012499999999999998 -0.00081227329409406233 -3.5757073335971887e-15 0.011694156946411424 202.54631709997309 2.1478254280968077e-05 
0.0012293352982278940 -0.00034597744546699838 0.0024999999999999996 -0.0010118186301540291 0.00028677619715828550 0.010165190473698170 202.61211417720580 -2.2507875156323979e-05 
0.00092577138548069666 0.0000000000000000 0.0024999999999999996 -0.00079006155678506076 6.6622763112415232e-15 0.010115045422500919 202.61154087021302 -2.8583348011815202e-06 
0.00092995606616407141 -0.00033286489796357382 0.0000000000000000 0.0000000000000000 0.0000000000000000 0.0099999999999999985 202.48051901131851 0.0000000000000000 
0.0012293352982278940 -0.00034597744546699838 0.0012499999999999998 -0.00081663288488506873 0.00022924131037008893 0.011708357891184478 202.54669204883066 2.3157410257786089e-05 
0.00092577138548069666 0.0000000000000000 0.0012499999999999998 -0.00058626634178798398 -9.3507089589773580e-15 0.011618507953410814 202.54574192400679 8.8523961594678920e-06 
0.00092995606616407141 -0.00033286489796357382 0.0024999999999999996 -0.00079072301960409711 0.00028215850060699349 0.010123833246937015 202.61166574213857 -8.9960404543169558e-06 
0.00092995606616407141 -0.00033286489796357382 0.0012499999999999998 -0.00059240116503707634 0.00021434636515924352 0.011632561916828448 202.54609237672855 1.5150453360170950e-05 
-0.00063950470092029863 0.00063950470092029852 0.0000000000000000 0.0000000000000000 0.0000000000000000 0.010000000000000000 202.48030218142881 0.0000000000000000 
-0.0012287767927745938 0.00069195489093399677 0.0000000000000000 0.0000000000000000 0.0000000000000000 0.010000000000000000 202.48188790824403 0.0000000000000000 
-0.00063950470092029863 0.00063950470092029852 0.0024999999999999996 0.00054675334259989114 -0.00054675334258041388 0.010111914138944082 202.61133514099549 -3.1085086933870653e-06 
-0.0012287767927745938 0.00069195489093399677 0.0024999999999999996 0.00099680439655297558 -0.00056573263897480807 0.010182952475808305 202.61224608713286 -2.5851132969297655e-05 
-0.00063057683410024882 0.00031975235046014926 0.0000000000000000 0.0000000000000000 0.0000000000000000 0.010000000000000005 202.47976810218140 0.0000000000000000 
-0.00093414074684744627 0.00066572979592714764 0.0000000000000000 0.0000000000000000 0.0000000000000000 0.010000000000000000 202.48109504483642 0.0000000000000000 
-0.0012293352982278940 0.00034597744546699838 0.0000000000000000 0.0000000000000000 0.0000000000000000 0.0099999999999999898 202.48126992045565 0.0000000000000000 
-0.00063950470092029863 0.00063950470092029852 0.0012499999999999998 0.00040433931151068002 -0.00040433931151000180 0.011615681139069569 202.54581866121214 1.0630221888406632e-05 
-0.0012287767927745938 0.00069195489093399677 0.0012499999999999998 0.00082840126301674368 -0.00046184593045584340 0.011749443576978475 202.54706699768843 2.4403435831269579e-05 
-0.00063057683410024882 0.00031975235046014926 0.0024999999999999996 0.00054440316676999544 -0.00027489996609952742 0.010087165949964467 202.61121730707129 1.9094599864991796e-05 
-0.00093414074684744627 0.00066572979592714764 0.0024999999999999996 0.00078484015977465810 -0.00055945727053080335 0.010146535378539360 202.61179061406418 -2.1271324951973980e-05 
-0.0012293352982278940 0.00034597744546699838 0.0024999999999999996 0.0010118186301641681 -0.00028677619714753417 0.010165190473698687 202.61211417720563 -2.2507875156356617e-05 
-0.00092995606616407141 0.00033286489796357382 0.0000000000000000 0.0000000000000000 0.0000000000000000 0.010000000000000002 202.48051901131853 0.0000000000000000 
-0.00063057683410024893 0.00031975235046014926 0.0012499999999999998 0.00039296822127424843 -0.00020157301608001205 0.011579813670407748 202.54549270462633 -1.3853789599197151e-05 
-0.00093414074684744627 0.00066572979592714764 0.0012499999999999998 0.00060460662367129066 -0.00043056505096132944 0.011671385345914182 202.54644282945031 2.6165109516411000e-05 
-0.0012293352982278940 0.00034597744546699838 0.0012499999999999998 0.00081663288490357053 -0.00022924131038348401 0.011708357891184676 202.54669204883064 2.3157410257720661e-05 
-0.00092995606616407141 0.00033286489796357382 0.0024999999999999996 0.00079072301961142903 -0.00028215850059738794 0.010123833246939010 202.61166574213848 -8.9960404544114051e-06 
-0.00092995606616407141 0.00033286489796357382 0.0012499999999999998 0.00059240116505677835 -0.00021434636517182157 0.011632561916824555 202.54609237672850 1.5150453360247676e-05 
0.0000000000000000 0.00062164896728019912 0.0000000000000000 0.0000000000000000 0.0000000000000000 0.010000000000000000 202.47923402293455 0.0000000000000000 
0.0000000000000000 0.00062164896728019912 0.0024999999999999996 3.6474159725999060e-15 -0.00053831294426914345 0.010077586404244427 202.61109947314711 2.9528838564209681e-05 
0.0000000000000000 0.00031082448364009956 0.0000000000000000 0.0000000000000000 0.0000000000000000 0.010000000000000002 202.47877175679474 0.0000000000000000 
-0.00031975235046014932 0.00063057683410024882 0.0000000000000000 0.0000000000000000 0.0000000000000000 0.010000000000000000 202.47976810218168 0.0000000000000000 
0.0000000000000000 0.00062164896728019912 0.0012499999999999998 2.0543611975673753e-15 -0.00038526293068785928 0.011566559132629632 202.54516674804083 -2.6363504326986366e-05 
0.0000000000000000 0.00031082448364009956 0.0024999999999999996 6.5817457879738471e-15 -0.00027008665508667360 0.010052512813673040 202.61099710946809 6.1964334892546330e-05 
-0.00031975235046014932 0.00063057683410024882 0.0024999999999999996 0.00027489996612137875 -0.00054440316675648725 0.010087165949962236 202.61121730707129 1.9094599865237937e-05 
-0.00031528841705012441 0.00031528841705012441 0.0000000000000000 0.0000000000000000 0.0000000000000000 0.010000000000000004 202.47926992948805 0.0000000000000000 
0.0000000000000000 0.00031082448364009956 0.0012499999999999998 2.1993700209108941e-14 -0.00019215648329029433 0.011534297919853527 202.54488443313141 -6.7300923743963275e-05 
-0.00031975235046014932 0.00063057683410024882 0.0012499999999999998 0.00020157301608474839 -0.00039296822123977590 0.011579813670407873 202.54549270462650 -1.3853789599985000e-05 
-0.00031528841705012441 0.00031528841705012441 0.0024999999999999996 0.00027328567148657724 -0.00027328567147103493 0.010061736929456482 202.61110720826969 4.9130877791081310e-05 
-0.00031528841705012446 0.00031528841705012441 0.0012499999999999998 0.00019596491333706114 -0.00019596491331770168 0.011546175787521776 202.54518856887887 -5.0526680626883620e-05 
-0.00069195489093399677 0.0012287767927745938 0.0000000000000000 0.0000000000000000 0.0000000000000000 0.010000000000000000 202.48188790824378 0.0000000000000000 
-0.0011755764485346602 0.0011755764485346602 0.0000000000000000 0.0000000000000000 0.0000000000000000 0.010000000000000000 202.48338415358796 0.0000000000000000 
-0.00069195489093399677 0.0012287767927745938 0.0024999999999999996 0.00056573263898390192 -0.00099680439654811835 0.010182952475799818 202.61224608713272 -2.5851132969065467e-05 
-0.0011755764485346602 0.0011755764485346602 0.0024999999999999996 0.00092090133449191020 -0.00092090133448130519 0.010209194126001660 202.61280965103003 -2.0950173257238144e-05 
-0.00066572979592714764 0.00093414074684744616 0.0000000000000000 0.0000000000000000 0.0000000000000000 0.010000000000000004 202.48109504483631 0.0000000000000000 
-0.00093376566973432846 0.0012021766206546270 0.0000000000000000 0.0000000000000000 0.0000000000000000 0.0099999999999999985 202.48263603091587 0.0000000000000000 
-0.0012021766206546270 0.00093376566973432846 0.0000000000000000 0.0000000000000000 0.0000000000000000 0.010000000000000007 202.48263603091601 0.0000000000000000 