# For a description of the Tecplot format see the Tecplot User's guide.
#
Variables=x,y,z,u,v,w,p,T
Zone f=fepoint, n=16513, e=15360, et=brick, c=black
-0.00117558 -0.00117558 0.00000 0.0000000000000000 0.0000000000000000 0.010000000000000000 202.93186565339681 0.0000000000000000 
-0.00069195489093399677 -0.0012287767927745938 0.0000000000000000 0.0000000000000000 0.0000000000000000 0.010000000000000000 202.93040070816801 0.0000000000000000 
-0.00063950470092029852 -0.00063950470092029852 0.0000000000000000 0.0000000000000000 0.0000000000000000 0.010000000000000000 202.92860300355332 0.0000000000000000 
-0.0012287767927745938 -0.00069195489093399677 0.0000000000000000 0.0000000000000000 0.0000000000000000 0.010000000000000000 202.93040070816738 0.0000000000000000 
-0.0011755764485346602 -0.0011755764485346602 0.0024999999999999996 0.00065044151613097886 0.00065044151613012592 0.013999395790092448 202.76792862304154 2.5279329775356338e-05 
-0.00069195489093399677 -0.0012287767927745938 0.0024999999999999996 0.00036945084131724678 0.00065098304135546468 0.013856254718294674 202.76761964191820 2.2449026894586213e-05 
-0.00063950470092029852 -0.00063950470092029852 0.0024999999999999996 0.00031558958372829109 0.00031558958371937011 0.013639125906678770 202.76708437373793 -2.9099953977633089e-05 
-0.0012287767927745938 -0.00069195489093399677 0.0024999999999999996 0.00065098304135483617 0.00036945084130769762 0.013856254718289740 202.76761964191849 2.2449026894777920e-05 
-0.00093376566973432846 -0.0012021766206546270 0.0000000000000000 0.0000000000000000 0.0000000000000000 0.0099999999999999967 202.93113318078241 0.0000000000000000 
-0.00066572979592714764 -0.00093414074684744616 0.0000000000000000 0.0000000000000000 0.0000000000000000 0.010000000000000000 202.92950185586068 0.0000000000000000 
-0.00093414074684744616 -0.00066572979592714764 0.0000000000000000 0.0000000000000000 0.0000000000000000 0.010000000000000004 202.92950185586034 0.0000000000000000 
-0.0012021766206546270 -0.00093376566973432846 0.0000000000000000 0.0000000000000000 0.0000000000000000 0.010000000000000000 202.93113318078207 0.0000000000000000 
-0.0011755764485346602 -0.0011755764485346602 0.0012499999999999998 0.00033029594399919211 0.00033029594398921691 0.0098428110505514588 202.84989713821915 3.0891035600210530e-06 
-0.00069195489093399677 -0.0012287767927745938 0.0012499999999999998 0.00017649903007880928 0.00032283832030425338 0.0097825974035966063 202.84901017504311 -1.0184830838362684e-06 
-0.00063950470092029852 -0.00063950470092029852 0.0012499999999999998 0.00014439050553612193 0.00014439050552194057 0.0097059674449098340 202.84784368864564 0.00010256077362918032 
-0.0012287767927745938 -0.00069195489093399677 0.0012499999999999998 0.00032283832031603459 0.00017649903007386288 0.0097825974035887827 202.84901017504293 -1.0184830843320788e-06 
-0.00093376566973432846 -0.0012021766206546270 0.0024999999999999996 0.00050723884513320129 0.00064894580199430858 0.013917307275698945 202.76777413247987 2.2355413868446664e-05 
-0.00066572979592714764 -0.00093414074684744616 0.0024999999999999996 0.00034050609504026707 0.00047732135142664463 0.013731070910557376 202.76735200782807 -9.7184384902269308e-06 
-0.00093414074684744616 -0.00066572979592714764 0.0024999999999999996 0.00047732135143010741 0.00034050609502943606 0.013731070910555979 202.76735200782821 -9.7184384901191543e-06 
-0.0012021766206546270 -0.00093376566973432846 0.0024999999999999996 0.00064894580198721291 0.00050723884512926499 0.013917307275694027 202.76777413248001 2.2355413868518807e-05 
-0.00093395320829088731 -0.00093395320829088731 0.0000000000000000 0.0000000000000000 0.0000000000000000 0.010000000000000002 202.93031751832137 0.0000000000000000 
-0.00093376566973432835 -0.0012021766206546270 0.0012499999999999998 0.00024770894260888994 0.00032643513234889874 0.0098068154533404138 202.84945365663114 3.6568035205322881e-06 
-0.00066572979592714764 -0.00093414074684744605 0.0012499999999999998 0.00015796673433514008 0.00022262476036390540 0.0097358465717192304 202.84842693184436 5.8570456972515522e-05 
-0.00093414074684744616 -0.00066572979592714764 0.0012499999999999998 0.00022262476037372380 0.00015796673432683225 0.0097358465717147930 202.84842693184427 5.8570456972089560e-05 
-0.0012021766206546270 -0.00093376566973432835 0.0012499999999999998 0.00032643513236024752 0.00024770894260540011 0.0098068154533379297 202.84945365663106 3.6568035203096201e-06 
-0.00093395320829088731 -0.00093395320829088731 0.0024999999999999996 0.00049083432421476853 0.00049083432420998427 0.013810976408875325 202.76756307015404 3.2015372175560559e-06 
-0.00093395320829088731 -0.00093395320829088731 0.0012499999999999998 0.00023299053571484280 0.00023299053570598346 0.0097643071193031505 202.84894029423771 3.4670966981832800e-05 
0.0000000000000000 -0.0012298938036811942 0.0000000000000000 0.0000000000000000 0.0000000000000000 0.010000000000000000 202.92921131477937 0.0000000000000000 
0.0000000000000000 -0.00062164896728019912 0.0000000000000000 0.0000000000000000 0.0000000000000000 0.010000000000000000 202.92743751347049 0.0000000000000000 
0.0000000000000000 -0.0012298938036811942 0.0024999999999999996 -7.2548415343754011e-15 0.00063209550374714615 0.013767386359457210 202.76742308571318 2.9081445230066602e-05 
0.0000000000000000 -0.00062164896728019912 0.0024999999999999996 2.1949714936732669e-16 0.00029659888534067054 0.013560917239269086 202.76683633816259 -2.6349312106086684e-05 
-0.00034597744546699838 -0.0012293352982278940 0.0000000000000000 0.0000000000000000 0.0000000000000000 0.010000000000000002 202.92980601147369 0.0000000000000000 
0.0000000000000000 -0.00092577138548069666 0.0000000000000000 0.0000000000000000 0.0000000000000000 0.010000000000000002 202.92832441412492 0.0000000000000000 
-0.00031975235046014926 -0.00063057683410024882 0.0000000000000000 0.0000000000000000 0.0000000000000000 0.0099999999999999985 202.92802025851191 0.0000000000000000 
0.0000000000000000 -0.0012298938036811942 0.0012499999999999998 8.6502175412189873e-15 0.00030857693324195834 0.0097488566510788108 202.84831720024627 -3.3508019409609877e-05 
0.0000000000000000 -0.00062164896728019912 0.0012499999999999998 1.2404533645783591e-14 0.00013463572905206224 0.0096814602397919461 202.84713692581653 6.4871962023534723e-05 
-0.00034597744546699838 -0.0012293352982278940 0.0024999999999999996 0.00018086557093734043 0.00063678759816769353 0.013789695504270507 202.76752136381569 2.5694849091513386e-05 
0.0000000000000000 -0.00092577138548069666 0.0024999999999999996 -1.8020108835676957e-15 0.00045774311556686775 0.013646286955539329 202.76712971193786 -1.0626626053494390e-05 
-0.00031975235046014926 -0.00063057683410024882 0.0024999999999999996 0.00015402155990508506 0.00030359422315761838 0.013581450079352221 202.76696035595023 -2.9699150981604733e-05 
-0.00033286489796357382 -0.00092995606616407141 0.0000000000000000 0.0000000000000000 0.0000000000000000 0.0099999999999999985 202.92891313499280 0.0000000000000000 
-0.00034597744546699838 -0.0012293352982278940 0.0012499999999999998 8.6978082514680208e-05 0.00031234386464802004 0.0097573545520294805 202.84866368764466 -1.9408599422547542e-05 
0.0000000000000000 -0.00092577138548069677 0.0012499999999999998 -5.4922942247882950e-16 0.00021061163854462406 0.0097070441240523029 202.84772706303139 3.7626014092656792e-05 
-0.00031975235046014926 -0.00063057683410024882 0.0012499999999999998 7.2614293238874527e-05 0.00013809262102238630 0.0096879955733186855 202.84749030723108 8.6900351757127208e-05 
-0.00033286489796357382 -0.00092995606616407141 0.0024999999999999996 0.00016627465948337806 0.00046387649300730859 0.013668258844334398 202.76724085988297 -1.2259178590649616e-05 
-0.00033286489796357382 -0.00092995606616407141 0.0012499999999999998 7.8767159936202533e-05 0.00021409055204369505 0.0097145898741535126 202.84807699743789 5.0787127614937261e-05 
-0.00062164896728019912 0.0000000000000000 0.0000000000000000 0.0000000000000000 0.0000000000000000 0.010000000000000000 202.92743751347035 0.0000000000000000 
-0.0012298938036811942 0.0000000000000000 0.0000000000000000 0.0000000000000000 0.0000000000000000 0.010000000000000000 202.92921131477934 0.0000000000000000 
-0.00062164896728019912 0.0000000000000000 0.0024999999999999996 0.00029659888533496839 -4.5711288538246130e-15 0.013560917239269691 202.76683633816262 -2.6349312105417351e-05 
-0.0012298938036811942 0.0000000000000000 0.0024999999999999996 0.00063209550375177700 -3.7303331860310178e-15 0.013767386359454386 202.76742308571340 2.9081445230842017e-05 
-0.00063057683410024882 -0.00031975235046014926 0.0000000000000000 0.0000000000000000 0.0000000000000000 0.010000000000000002 202.92802025851182 0.0000000000000000 
-0.00092577138548069666 0.0000000000000000 0.0000000000000000 0.0000000000000000 0.0000000000000000 0.010000000000000002 202.92832441412486 0.0000000000000000 
-0.0012293352982278940 -0.00034597744546699838 0.0000000000000000 0.0000000000000000 0.0000000000000000 0.010000000000000000 202.92980601147337 0.0000000000000000 
-0.00062164896728019912 0.0000000000000000 0.0012499999999999998 0.00013463572904817125 1.7470176917431753e-15 0.0096814602397894758 202.84713692581647 6.4871962022620754e-05 
-0.0012298938036811942 0.0000000000000000 0.0012499999999999998 0.00030857693324382219 -4.3537013675692279e-15 0.0097488566510703766 202.84831720024636 -3.3508019410415107e-05 
-0.00063057683410024882 -0.00031975235046014926 0.0024999999999999996 0.00030359422314006390 0.00015402155989705605 0.013581450079352837 202.76696035595029 -2.9699150981250110e-05 
-0.00092577138548069666 0.0000000000000000 0.0024999999999999996 0.00045774311556528996 -6.9177929390543279e-15 0.013646286955537899 202.76712971193803 -1.0626626052620147e-05 
-0.0012293352982278940 -0.00034597744546699838 0.0024999999999999996 0.00063678759817302390 0.00018086557092876702 0.013789695504268109 202.76752136381594 2.5694849092024496e-05 
-0.00092995606616407141 -0.00033286489796357382 0.0000000000000000 0.0000000000000000 0.0000000000000000 0.010000000000000000 202.92891313499260 0.0000000000000000 
-0.00063057683410024882 -0.00031975235046014926 0.0012499999999999998 0.00013809262102551539 7.2614293231393654e-05 0.0096879955733155908 202.84749030723106 8.6900351756561201e-05 
-0.00092577138548069666 0.0000000000000000 0.0012499999999999998 0.00021061163854088405 4.7750116590616105e-15 0.0097070441240478377 202.84772706303144 3.7626014091587816e-05 
-0.0012293352982278940 -0.00034597744546699838 0.0012499999999999998 0.00031234386465275291 8.6978082507152416e-05 0.0097573545520185032 202.84866368764466 -1.9408599423334476e-05 
-0.00092995606616407141 -0.00033286489796357382 0.0024999999999999996 0.00046387649300728539 0.00016627465947784779 0.013668258844337330 202.76724085988312 -1.2259178590164205e-05 
-0.00092995606616407141 -0.00033286489796357382 0.0012499999999999998 0.00021409055204706527 7.8767159929055174e-05 0.0097145898741464384 202.84807699743783 5.0787127614062275e-05 
0.0000000000000000 0.0000000000000000 0.0000000000000000 0.0000000000000000 0.0000000000000000 0.010000000000000000 202.92644313638374 0.0000000000000000 
0.0000000000000000 0.0000000000000000 0.0024999999999999996 -6.2889240520379737e-15 3.1379333009638944e-15 0.013492538295444037 202.76660935106736 -1.3466716434466341e-05 
0.0000000000000000 -0.00031082448364009956 0.0000000000000000 0.0000000000000000 0.0000000000000000 0.010000000000000004 202.92694032492710 0.0000000000000000 
-0.00031082448364009956 0.0000000000000000 0.0000000000000000 0.0000000000000000 0.0000000000000000 0.010000000000000002 202.92694032492705 0.0000000000000000 
0.0000000000000000 0.0000000000000000 0.0012499999999999998 -3.8230240986616892e-15 -5.8926986683864820e-15 0.0096615507621986996 202.84652624372555 -3.4164874814963580e-05 
0.0000000000000000 -0.00031082448364009956 0.0024999999999999996 -6.6433575850545036e-15 0.00014478369255464750 0.013509587108179365 202.76672284461495 -1.9798080075299831e-05 
-0.00031082448364009956 0.0000000000000000 0.0024999999999999996 0.00014478369254921383 -7.6737177123460360e-15 0.013509587108173326 202.76672284461500 -1.9798080074971372e-05 
-0.00031528841705012441 -0.00031528841705012441 0.0000000000000000 0.0000000000000000 0.0000000000000000 0.010000000000000005 202.92748029171946 0.0000000000000000 
0.0000000000000000 -0.00031082448364009956 0.0012499999999999998 -2.7527160912989098e-15 6.7664042173584606e-05 0.0096666391798761065 202.84683158477102 7.9267483298074648e-06 
-0.00031082448364009956 0.0000000000000000 0.0012499999999999998 6.7664042173486689e-05 -6.5144770481194430e-15 0.0096666391798755757 202.84683158477102 7.9267483294730274e-06 
-0.00031528841705012441 -0.00031528841705012441 0.0024999999999999996 0.00014816381854275331 0.00014816381853768827 0.013527755064475866 202.76684160028262 -2.5466647807031619e-05 
-0.00031528841705012441 -0.00031528841705012441 0.0012499999999999998 6.9488737924842673e-05 6.9488737918790277e-05 0.0096721784286270523 202.84716094600105 4.4561810703076796e-05 
0.00069195489093399677 -0.0012287767927745938 0.0000000000000000 0.0000000000000000 0.0000000000000000 0.010000000000000000 202.93040070816798 0.0000000000000000 
0.00063950470092029852 -0.00063950470092029863 0.0000000000000000 0.0000000000000000 0.0000000000000000 0.010000000000000000 202.92860300355332 0.0000000000000000 
0.00069195489093399677 -0.0012287767927745938 0.0024999999999999996 -0.00036945084131634868 0.00065098304134375757 0.013856254718292962 202.76761964191832 2.2449026894745259e-05 
0.00063950470092029852 -0.00063950470092029863 0.0024999999999999996 -0.00031558958372713094 0.00031558958372807306 0.013639125906678871 202.76708437373784 -2.9099953978352952e-05 
0.00034597744546699838 -0.0012293352982278940 0.0000000000000000 0.0000000000000000 0.0000000000000000 0.0099999999999999950 202.92980601147366 0.0000000000000000 
0.00066572979592714764 -0.00093414074684744627 0.0000000000000000 0.0000000000000000 0.0000000000000000 0.0099999999999999950 202.92950185586065 0.0000000000000000 
0.00031975235046014926 -0.00063057683410024882 0.0000000000000000 0.0000000000000000 0.0000000000000000 0.010000000000000007 202.92802025851191 0.0000000000000000 
0.00069195489093399677 -0.0012287767927745938 0.0012499999999999998 -0.00017649903007697083 0.00032283832030539954 0.0097825974035993385 202.84901017504313 -1.0184830842681525e-06 
0.00063950470092029852 -0.00063950470092029863 0.0012499999999999998 -0.00014439050551714978 0.00014439050552580800 0.0097059674449130207 202.84784368864558 0.00010256077363043445 
0.00034597744546699838 -0.0012293352982278940 0.0024999999999999996 -0.00018086557093823370 0.00063678759815649828 0.013789695504273390 202.76752136381575 2.5694849091426457e-05 
0.00066572979592714764 -0.00093414074684744627 0.0024999999999999996 -0.00034050609502957099 0.00047732135141806306 0.013731070910557723 202.76735200782809 -9.7184384905330688e-06 
0.00031975235046014926 -0.00063057683410024882 0.0024999999999999996 -0.00015402155990785739 0.00030359422315885464 0.013581450079353463 202.76696035595020 -2.9699150982309583e-05 
0.00033286489796357382 -0.00092995606616407152 0.0000000000000000 0.0000000000000000 0.0000000000000000 0.0099999999999999950 202.92891313499280 0.0000000000000000 
0.00034597744546699838 -0.0012293352982278940 0.0012499999999999998 -8.6978082508827264e-05 0.00031234386465078476 0.0097573545520304710 202.84866368764472 -1.9408599422504144e-05 
0.00066572979592714764 -0.00093414074684744627 0.0012499999999999998 -0.00015796673433200891 0.00022262476036710152 0.0097358465717219227 202.84842693184436 5.8570456972637990e-05 
0.00031975235046014926 -0.00063057683410024893 0.0012499999999999998 -7.2614293230420556e-05 0.00013809262103208939 0.0096879955733205781 202.84749030723106 8.6900351758663496e-05 
0.00033286489796357382 -0.00092995606616407152 0.0024999999999999996 -0.00016627465947905760 0.00046387649300870445 0.013668258844339967 202.76724085988297 -1.2259178591155720e-05 
0.00033286489796357382 -0.00092995606616407141 0.0012499999999999998 -7.8767159929793353e-05 0.00021409055204739947 0.0097145898741525325 202.84807699743789 5.0787127615636388e-05 
0.0011755764485346602 -0.0011755764485346602 0.0000000000000000 0.0000000000000000 0.0000000000000000 0.010000000000000000 202.93186565339624 0.0000000000000000 
0.0012287767927745938 -0.00069195489093399677 0.0000000000000000 0.0000000000000000 0.0000000000000000 0.010000000000000000 202.93040070816778 0.0000000000000000 
0.0011755764485346602 -0.0011755764485346602 0.0024999999999999996 -0.00065044151613351578 0.00065044151612561238 0.013999395790087060 202.76792862304168 2.5279329775806390e-05 
0.0012287767927745938 -0.00069195489093399677 0.0024999999999999996 -0.00065098304135796203 0.00036945084131491472 0.013856254718291189 202.76761964191834 2.2449026895090025e-05 
0.00093376566973432846 -0.0012021766206546270 0.0000000000000000 0.0000000000000000 0.0000000000000000 0.010000000000000009 202.93113318078213 0.0000000000000000 
0.0012021766206546270 -0.00093376566973432846 0.0000000000000000 0.0000000000000000 0.0000000000000000 0.0099999999999999985 202.93113318078201 0.0000000000000000 
0.00093414074684744616 -0.00066572979592714764 0.0000000000000000 0.0000000000000000 0.0000000000000000 0.010000000000000005 202.92950185586056 0.0000000000000000 
0.0011755764485346602 -0.0011755764485346602 0.0012499999999999998 -0.00033029594399334620 0.00033029594398239224 0.0098428110505579015 202.84989713821898 3.0891035595996151e-06 
0.0012287767927745938 -0.00069195489093399677 0.0012499999999999998 -0.00032283832030821440 0.00017649903006299061 0.0097825974035979160 202.84901017504308 -1.0184830847927037e-06 
0.00093376566973432846 -0.0012021766206546270 0.0024999999999999996 -0.00050723884513186285 0.00064894580198657649 0.013917307275693505 202.76777413247999 2.2355413868860138e-05 
0.0012021766206546270 -0.00093376566973432846 0.0024999999999999996 -0.00064894580198562315 0.00050723884512902430 0.013917307275690580 202.76777413248001 2.2355413868987247e-05 
0.00093414074684744616 -0.00066572979592714764 0.0024999999999999996 -0.00047732135142424442 0.00034050609502762463 0.013731070910556734 202.76735200782809 -9.7184384902237459e-06 
0.00093395320829088731 -0.00093395320829088731 0.0000000000000000 0.0000000000000000 0.0000000000000000 0.010000000000000002 202.93031751832135 0.0000000000000000 
0.00093376566973432846 -0.0012021766206546270 0.0012499999999999998 -0.00024770894260412710 0.00032643513235574868 0.0098068154533465877 202.84945365663106 3.6568035198530592e-06 
0.0012021766206546270 -0.00093376566973432835 0.0012499999999999998 -0.00032643513235620204 0.00024770894259789489 0.0098068154533461176 202.84945365663103 3.6568035197335454e-06 
0.00093414074684744616 -0.00066572979592714764 0.0012499999999999998 -0.00022262476036444791 0.00015796673432487995 0.0097358465717212773 202.84842693184433 5.8570456972196842e-05 
0.00093395320829088731 -0.00093395320829088731 0.0024999999999999996 -0.00049083432421333846 0.00049083432420806241 0.013810976408871781 202.76756307015404 3.2015372177660735e-06 
0.00093395320829088731 -0.00093395320829088731 0.0012499999999999998 -0.00023299053570703589 0.00023299053570486445 0.0097643071193091284 202.84894029423768 3.4670966981287365e-05 
0.00062164896728019912 0.0000000000000000 0.0000000000000000 0.0000000000000000 0.0000000000000000 0.010000000000000000 202.92743751347061 0.0000000000000000 
0.00062164896728019912 0.0000000000000000 0.0024999999999999996 -0.00029659888534503239 -4.8296468670127025e-16 0.013560917239268193 202.76683633816248 -2.6349312105195585e-05 
0.00063057683410024882 -0.00031975235046014932 0.0000000000000000 0.0000000000000000 0.0000000000000000 0.010000000000000000 202.92802025851196 0.0000000000000000 
0.00031082448364009956 0.0000000000000000 0.0000000000000000 0.0000000000000000 0.0000000000000000 0.010000000000000004 202.92694032492716 0.0000000000000000 
0.00062164896728019912 0.0000000000000000 0.0012499999999999998 -0.00013463572904387526 -2.3222039483133186e-15 0.0096814602397927822 202.84713692581656 6.4871962022435342e-05 
0.00063057683410024882 -0.00031975235046014932 0.0024999999999999996 -0.00030359422316106219 0.00015402155990438030 0.013581450079349676 202.76696035595018 -2.9699150981831744e-05 
0.00031082448364009956 0.0000000000000000 0.0024999999999999996 -0.00014478369255773715 -2.1874946847102967e-15 0.013509587108172537 202.76672284461495 -1.9798080074850914e-05 
0.00031528841705012441 -0.00031528841705012441 0.0000000000000000 0.0000000000000000 0.0000000000000000 0.010000000000000002 202.92748029171952 0.0000000000000000 
0.00063057683410024882 -0.00031975235046014932 0.0012499999999999998 -0.00013809262101295767 7.2614293234957508e-05 0.0096879955733201618 202.84749030723106 8.6900351757894918e-05 
0.00031082448364009956 0.0000000000000000 0.0012499999999999998 -6.7664042178397813e-05 -4.7209478077334866e-15 0.0096666391798760597 202.84683158477105 7.9267483295200089e-06 
0.00031528841705012441 -0.00031528841705012441 0.0024999999999999996 -0.00014816381854948016 0.00014816381854432866 0.013527755064477049 202.76684160028256 -2.5466647807560625e-05 
0.00031528841705012441 -0.00031528841705012446 0.0012499999999999998 -6.9488737917547158e-05 6.9488737921559831e-05 0.0096721784286279543 202.84716094600105 4.4561810704467847e-05 
0.0012298938036811942 0.0000000000000000 0.0000000000000000 0.0000000000000000 0.0000000000000000 0.010000000000000000 202.92921131477937 0.0000000000000000 
0.0012298938036811942 0.0000000000000000 0.0024999999999999996 -0.00063209550376022629 -6.1538486863140630e-15 0.013767386359454403 202.76742308571306 2.9081445231115324e-05 
0.0012293352982278940 -0.00034597744546699838 0.0000000000000000 0.0000000000000000 0.0000000000000000 0.010000000000000002 202.92980601147357 0.0000000000000000 
0.00092577138548069666 0.0000000000000000 0.0000000000000000 0.0000000000000000 0.0000000000000000 0.0099999999999999985 202.92832441412497 0.0000000000000000 
0.0012298938036811942 0.0000000000000000 0.0012499999999999998 -0.00030857693324919799 -6.4924714751901692e-15 0.0097488566510779834 202.84831720024621 -3.3508019410743187e-05 
0.0012293352982278940 -0.00034597744546699838 0.0024999999999999996 -0.00063678759816197578 0.00018086557094008831 0.013789695504268302 202.76752136381572 2.5694849092146513e-05 
0.00092577138548069666 0.0000000000000000 0.0024999999999999996 -0.00045774311556896221 -6.5480707158921952e-15 0.013646286955537157 202.76712971193780 -1.0626626052266622e-05 
0.00092995606616407141 -0.00033286489796357382 0.0000000000000000 0.0000000000000000 0.0000000000000000 0.0099999999999999985 202.92891313499277 0.0000000000000000 
0.0012293352982278940 -0.00034597744546699838 0.0012499999999999998 -0.00031234386465179778 8.6978082504170088e-05 0.0097573545520296817 202.84866368764466 -1.9408599423536521e-05 
0.00092577138548069666 0.0000000000000000 0.0012499999999999998 -0.00021061163853972734 -4.4970718661457392e-16 0.0097070441240525076 202.84772706303139 3.7626014091234441e-05 
0.00092995606616407141 -0.00033286489796357382 0.0024999999999999996 -0.00046387649301070919 0.00016627465948215311 0.013668258844339965 202.76724085988295 -1.2259178590317094e-05 
0.00092995606616407141 -0.00033286489796357382 0.0012499999999999998 -0.00021409055204108744 7.8767159926425997e-05 0.0097145898741520798 202.84807699743783 5.0787127614531410e-05 
-0.00063950470092029863 0.00063950470092029852 0.0000000000000000 0.0000000000000000 0.0000000000000000 0.010000000000000000 202.92860300355338 0.0000000000000000 
-0.0012287767927745938 0.00069195489093399677 0.0000000000000000 0.0000000000000000 0.0000000000000000 0.010000000000000000 202.93040070816789 0.0000000000000000 
-0.00063950470092029863 0.00063950470092029852 0.0024999999999999996 0.00031558958371926250 -0.00031558958373144254 0.013639125906683390 202.76708437373776 -2.9099953978186459e-05 
-0.0012287767927745938 0.00069195489093399677 0.0024999999999999996 0.00065098304134641191 -0.00036945084131046661 0.013856254718293916 202.76761964191815 2.2449026895151326e-05 
-0.00063057683410024882 0.00031975235046014926 0.0000000000000000 0.0000000000000000 0.0000000000000000 0.010000000000000005 202.92802025851188 0.0000000000000000 
-0.00093414074684744627 0.00066572979592714764 0.0000000000000000 0.0000000000000000 0.0000000000000000 0.010000000000000000 202.92950185586062 0.0000000000000000 
-0.0012293352982278940 0.00034597744546699838 0.0000000000000000 0.0000000000000000 0.0000000000000000 0.0099999999999999898 202.92980601147360 0.0000000000000000 
-0.00063950470092029863 0.00063950470092029852 0.0012499999999999998 0.00014439050552282978 -0.00014439050553742829 0.0097059674449122783 202.84784368864558 0.00010256077363037373 
-0.0012287767927745938 0.00069195489093399677 0.0012499999999999998 0.00032283832030572247 -0.00017649903007554412 0.0097825974035971267 202.84901017504302 -1.0184830846247089e-06 
-0.00063057683410024882 0.00031975235046014926 0.0024999999999999996 0.00030359422315516830 -0.00015402155991282195 0.013581450079355399 202.76696035595020 -2.9699150981667660e-05 
-0.00093414074684744627 0.00066572979592714764 0.0024999999999999996 0.00047732135142165106 -0.00034050609505335329 0.013731070910564514 202.76735200782798 -9.7184384901264727e-06 
-0.0012293352982278940 0.00034597744546699838 0.0024999999999999996 0.00063678759816851265 -0.00018086557094422367 0.013789695504271443 202.76752136381577 2.5694849092180990e-05 
-0.00092995606616407141 0.00033286489796357382 0.0000000000000000 0.0000000000000000 0.0000000000000000 0.010000000000000002 202.92891313499274 0.0000000000000000 
-0.00063057683410024893 0.00031975235046014926 0.0012499999999999998 0.00013809262101115388 -7.2614293237744274e-05 0.0096879955733179118 202.84749030723106 8.6900351757955661e-05 
-0.00093414074684744627 0.00066572979592714764 0.0012499999999999998 0.00022262476036467033 -0.00015796673433610974 0.0097358465717203788 202.84842693184430 5.8570456972254718e-05 
-0.0012293352982278940 0.00034597744546699838 0.0012499999999999998 0.00031234386463343389 -8.6978082509809809e-05 0.0097573545520248488 202.84866368764469 -1.9408599423062247e-05 
-0.00092995606616407141 0.00033286489796357382 0.0024999999999999996 0.00046387649300474228 -0.00016627465948980348 0.013668258844343270 202.76724085988300 -1.2259178590249306e-05 
-0.00092995606616407141 0.00033286489796357382 0.0012499999999999998 0.00021409055203572058 -7.8767159932478041e-05 0.0097145898741513859 202.84807699743786 5.0787127614818019e-05 
0.0000000000000000 0.00062164896728019912 0.0000000000000000 0.0000000000000000 0.0000000000000000 0.010000000000000000 202.92743751347024 0.0000000000000000 
0.0000000000000000 0.00062164896728019912 0.0024999999999999996 -6.4557944980136568e-15 -0.00029659888535287524 0.013560917239271502 202.76683633816256 -2.6349312105504213e-05 
0.0000000000000000 0.00031082448364009956 0.0000000000000000 0.0000000000000000 0.0000000000000000 0.010000000000000002 202.92694032492699 0.0000000000000000 
-0.00031975235046014932 0.00063057683410024882 0.0000000000000000 0.0000000000000000 0.0000000000000000 0.010000000000000000 202.92802025851182 0.0000000000000000 
0.0000000000000000 0.00062164896728019912 0.0012499999999999998 2.8948100915866820e-16 -0.00013463572906218402 0.0096814602397897413 202.84713692581641 6.4871962023632898e-05 
0.0000000000000000 0.00031082448364009956 0.0024999999999999996 -2.6162062682922544e-15 -0.00014478369255761146 0.013509587108173935 202.76672284461495 -1.9798080074669381e-05 
-0.00031975235046014932 0.00063057683410024882 0.0024999999999999996 0.00015402155990167050 -0.00030359422316104755 0.013581450079354436 202.76696035595018 -2.9699150981961520e-05 
-0.00031528841705012441 0.00031528841705012441 0.0000000000000000 0.0000000000000000 0.0000000000000000 0.010000000000000004 202.92748029171943 0.0000000000000000 
0.0000000000000000 0.00031082448364009956 0.0012499999999999998 -1.5269459169145896e-14 -6.7664042188749098e-05 0.0096666391798751611 202.84683158477097 7.9267483299937189e-06 
-0.00031975235046014932 0.00063057683410024882 0.0012499999999999998 7.2614293232371185e-05 -0.00013809262103922477 0.0096879955733179535 202.84749030723100 8.6900351758655879e-05 
-0.00031528841705012441 0.00031528841705012441 0.0024999999999999996 0.00014816381854029534 -0.00014816381854761428 0.013527755064477721 202.76684160028259 -2.5466647807186274e-05 
-0.00031528841705012446 0.00031528841705012441 0.0012499999999999998 6.9488737915100480e-05 -6.9488737929667861e-05 0.0096721784286277392 202.84716094600103 4.4561810704496450e-05 
-0.00069195489093399677 0.0012287767927745938 0.0000000000000000 0.0000000000000000 0.0000000000000000 0.010000000000000000 202.93040070816789 0.0000000000000000 
-0.0011755764485346602 0.0011755764485346602 0.0000000000000000 0.0000000000000000 0.0000000000000000 0.010000000000000000 202.93186565339656 0.0000000000000000 
-0.00069195489093399677 0.0012287767927745938 0.0024999999999999996 0.00036945084131121807 -0.00065098304134791147 0.013856254718294603 202.76761964191832 2.2449026894843284e-05 
-0.0011755764485346602 0.0011755764485346602 0.0024999999999999996 0.00065044151612722242 -0.00065044151613158048 0.013999395790089538 202.76792862304140 2.5279329775912242e-05 
-0.00066572979592714764 0.00093414074684744616 0.0000000000000000 0.0000000000000000 0.0000000000000000 0.010000000000000004 202.92950185586062 0.0000000000000000 
-0.00093376566973432846 0.0012021766206546270 0.0000000000000000 0.0000000000000000 0.0000000000000000 0.0099999999999999985 202.93113318078221 0.0000000000000000 
-0.0012021766206546270 0.00093376566973432846 0.0000000000000000 0.0000000000000000 0.0000000000000000 0.010000000000000007 202.93113318078221 0.0000000000000000 