# For a description of the Tecplot format see the Tecplot User's guide.
#
Variables=x,y,z,u,v,w,p,T
Zone f=fepoint, n=16513, e=15360, et=brick, c=black
-0.00117558 -0.00117558 0.00000 0.0000000000000000 0.0000000000000000 0.010000000000000000 202.93134200631221 0.0000000000000000 
-0.00069195489093399677 -0.0012287767927745938 0.0000000000000000 0.0000000000000000 0.0000000000000000 0.010000000000000000 202.92987876436749 0.0000000000000000 
-0.00063950470092029852 -0.00063950470092029852 0.0000000000000000 0.0000000000000000 0.0000000000000000 0.010000000000000000 202.92808429548464 0.0000000000000000 
-0.0012287767927745938 -0.00069195489093399677 0.0000000000000000 0.0000000000000000 0.0000000000000000 0.010000000000000000 202.92987876436695 0.0000000000000000 
-0.0011755764485346602 -0.0011755764485346602 0.0024999999999999996 0.00065226992524868672 0.00065226992524844841 0.013997073476723198 202.76746624649758 2.5231368810372192e-05 
-0.00069195489093399677 -0.0012287767927745938 0.0024999999999999996 0.00037064958208323222 0.00065310334407002858 0.013854289317315456 202.76715986153377 2.2420752884973209e-05 
-0.00063950470092029852 -0.00063950470092029852 0.0024999999999999996 0.00031685916761498532 0.00031685916759450106 0.013637568079151462 202.76662786143848 -2.9032550611233937e-05 
-0.0012287767927745938 -0.00069195489093399677 0.0024999999999999996 0.00065310334406678498 0.00037064958206769300 0.013854289317312668 202.76715986153417 2.2420752885168796e-05 
-0.00093376566973432846 -0.0012021766206546270 0.0000000000000000 0.0000000000000000 0.0000000000000000 0.0099999999999999967 202.93061038533983 0.0000000000000000 
-0.00066572979592714764 -0.00093414074684744616 0.0000000000000000 0.0000000000000000 0.0000000000000000 0.010000000000000000 202.92898152992606 0.0000000000000000 
-0.00093414074684744616 -0.00066572979592714764 0.0000000000000000 0.0000000000000000 0.0000000000000000 0.010000000000000004 202.92898152992581 0.0000000000000000 
-0.0012021766206546270 -0.00093376566973432846 0.0000000000000000 0.0000000000000000 0.0000000000000000 0.010000000000000000 202.93061038533955 0.0000000000000000 
-0.0011755764485346602 -0.0011755764485346602 0.0012499999999999998 0.00033169577870413987 0.00033169577870321819 0.0098463942377905386 202.84940412640486 3.1186916276663080e-06 
-0.00069195489093399677 -0.0012287767927745938 0.0012499999999999998 0.00017731639255325570 0.00032429204461336780 0.0097861003175949684 202.84851931295063 -9.6822871154616829e-07 
-0.00063950470092029852 -0.00063950470092029852 0.0012499999999999998 0.00014512796566009000 0.00014512796563872241 0.0097092944065337201 202.84735607846156 0.00010242058614745005 
-0.0012287767927745938 -0.00069195489093399677 0.0012499999999999998 0.00032429204462028506 0.00017731639255083007 0.0097861003175872419 202.84851931295054 -9.6822871196259828e-07 
-0.00093376566973432846 -0.0012021766206546270 0.0024999999999999996 0.00050878645850434593 0.00065093298118050057 0.013915198662275788 202.76731305401569 2.2309420870486820e-05 
-0.00066572979592714764 -0.00093414074684744616 0.0024999999999999996 0.00034175787990238971 0.00047907684189331406 0.013729359504315027 202.76689386148612 -9.6836368835875283e-06 
-0.00093414074684744616 -0.00066572979592714764 0.0024999999999999996 0.00047907684190232850 0.00034175787988773574 0.013729359504315556 202.76689386148632 -9.6836368834552336e-06 
-0.0012021766206546270 -0.00093376566973432846 0.0024999999999999996 0.00065093298117172330 0.00050878645850052228 0.013915198662271954 202.76731305401586 2.2309420870552540e-05 
-0.00093395320829088731 -0.00093395320829088731 0.0000000000000000 0.0000000000000000 0.0000000000000000 0.010000000000000002 202.92979595763279 0.0000000000000000 
-0.00093376566973432835 -0.0012021766206546270 0.0012499999999999998 0.00024881357324501956 0.00032786359615777632 0.0098103556261756389 202.84896171967773 3.7050573618831116e-06 
-0.00066572979592714764 -0.00093414074684744605 0.0012499999999999998 0.00015874404524436630 0.00022371250199624030 0.0097392550367351709 202.84793769570609 5.8506952364397771e-05 
-0.00093414074684744616 -0.00066572979592714764 0.0012499999999999998 0.00022371250200892975 0.00015874404523542020 0.0097392550367301958 202.84793769570607 5.8506952363914298e-05 
-0.0012021766206546270 -0.00093376566973432835 0.0012499999999999998 0.00032786359615937763 0.00024881357324598108 0.0098103556261733265 202.84896171967773 3.7050573617381402e-06 
-0.00093395320829088731 -0.00093395320829088731 0.0024999999999999996 0.00049250178208278363 0.00049250178207718373 0.013809108407411508 202.76710345775101 3.1922598590821055e-06 
-0.00093395320829088731 -0.00093395320829088731 0.0012499999999999998 0.00023408729894793724 0.00023408729894055483 0.0097677770309801248 202.84844970769191 3.4676320099401512e-05 
0.0000000000000000 -0.0012298938036811942 0.0000000000000000 0.0000000000000000 0.0000000000000000 0.010000000000000000 202.92869021746836 0.0000000000000000 
0.0000000000000000 -0.00062164896728019912 0.0000000000000000 0.0000000000000000 0.0000000000000000 0.010000000000000000 202.92691957157263 0.0000000000000000 
0.0000000000000000 -0.0012298938036811942 0.0024999999999999996 -1.7042242056581569e-16 0.00063434475956374037 0.013765607142608046 202.76696495586637 2.9100652217310266e-05 
0.0000000000000000 -0.00062164896728019912 0.0024999999999999996 1.2878610168112580e-15 0.00029788835060975618 0.013559468542084422 202.76638124820917 -2.6341063139400372e-05 
-0.00034597744546699838 -0.0012293352982278940 0.0000000000000000 0.0000000000000000 0.0000000000000000 0.010000000000000002 202.92928449091792 0.0000000000000000 
0.0000000000000000 -0.00092577138548069666 0.0000000000000000 0.0000000000000000 0.0000000000000000 0.010000000000000002 202.92780489452048 0.0000000000000000 
-0.00031975235046014926 -0.00063057683410024882 0.0000000000000000 0.0000000000000000 0.0000000000000000 0.0099999999999999985 202.92750193352862 0.0000000000000000 
0.0000000000000000 -0.0012298938036811942 0.0012499999999999998 9.5836845337407716e-15 0.00031002238920340162 0.0097522953404605758 202.84782758666736 -3.3505644877566188e-05 
0.0000000000000000 -0.00062164896728019912 0.0012499999999999998 1.6052072638732522e-14 0.00013534446875009990 0.0096847069193310032 202.84665040989091 6.4834229824664870e-05 
-0.00034597744546699838 -0.0012293352982278940 0.0024999999999999996 0.00018148971401360015 0.00063900325889911696 0.013787872719406312 202.76706240870007 2.5701013890960492e-05 
0.0000000000000000 -0.00092577138548069666 0.0024999999999999996 3.8952748758985258e-15 0.00045957381713757984 0.013644718982644253 202.76667310203777 -1.0563059379293832e-05 
-0.00031975235046014926 -0.00063057683410024882 0.0024999999999999996 0.00015467481131534164 0.00030488745226470930 0.013579975311996034 202.76650455482383 -2.9661564912831092e-05 
-0.00033286489796357382 -0.00092995606616407141 0.0000000000000000 0.0000000000000000 0.0000000000000000 0.0099999999999999985 202.92839321222326 0.0000000000000000 
-0.00034597744546699838 -0.0012293352982278940 0.0012499999999999998 8.7384017270638196e-05 0.00031379020089016999 0.0097608107962632792 202.84817344980900 -1.9389487933038114e-05 
0.0000000000000000 -0.00092577138548069677 0.0012499999999999998 -3.6891190529108057e-15 0.00021167941464375373 0.0097103765446508103 202.84723899827912 3.7484380886911802e-05 
-0.00031975235046014926 -0.00063057683410024882 0.0012499999999999998 7.2981357558206511e-05 0.00013881339874647478 0.0096912646197361736 202.84700324417622 8.6807038786944208e-05 
-0.00033286489796357382 -0.00092995606616407141 0.0024999999999999996 0.00016692182536477018 0.00046569166825161074 0.013666656478526995 202.76678348176193 -1.2197852772233498e-05 
-0.00033286489796357382 -0.00092995606616407141 0.0012499999999999998 7.9153581387376575e-05 0.00021516540409186188 0.0097179433272535278 202.84758834699261 5.0662011693152222e-05 
-0.00062164896728019912 0.0000000000000000 0.0000000000000000 0.0000000000000000 0.0000000000000000 0.010000000000000000 202.92691957157257 0.0000000000000000 
-0.0012298938036811942 0.0000000000000000 0.0000000000000000 0.0000000000000000 0.0000000000000000 0.010000000000000000 202.92869021746822 0.0000000000000000 
-0.00062164896728019912 0.0000000000000000 0.0024999999999999996 0.00029788835061542201 -1.4916824410786393e-14 0.013559468542087030 202.76638124820920 -2.6341063138593679e-05 
-0.0012298938036811942 0.0000000000000000 0.0024999999999999996 0.00063434475957038652 -8.3800700206815897e-15 0.013765607142606011 202.76696495586668 2.9100652218086487e-05 
-0.00063057683410024882 -0.00031975235046014926 0.0000000000000000 0.0000000000000000 0.0000000000000000 0.010000000000000002 202.92750193352862 0.0000000000000000 
-0.00092577138548069666 0.0000000000000000 0.0000000000000000 0.0000000000000000 0.0000000000000000 0.010000000000000002 202.92780489452039 0.0000000000000000 
-0.0012293352982278940 -0.00034597744546699838 0.0000000000000000 0.0000000000000000 0.0000000000000000 0.010000000000000000 202.92928449091758 0.0000000000000000 
-0.00062164896728019912 0.0000000000000000 0.0012499999999999998 0.00013534446875554206 -6.8053352731639163e-15 0.0096847069193284740 202.84665040989088 6.4834229823543412e-05 
-0.0012298938036811942 0.0000000000000000 0.0012499999999999998 0.00031002238922108171 -4.4812877809028642e-15 0.0097522953404524330 202.84782758666745 -3.3505644878529136e-05 
-0.00063057683410024882 -0.00031975235046014926 0.0024999999999999996 0.00030488745225635573 0.00015467481129785248 0.013579975311998201 202.76650455482383 -2.9661564912412292e-05 
-0.00092577138548069666 0.0000000000000000 0.0024999999999999996 0.00045957381714348196 -1.9889053836268313e-14 0.013644718982641970 202.76667310203794 -1.0563059378370861e-05 
-0.0012293352982278940 -0.00034597744546699838 0.0024999999999999996 0.00063900325890762209 0.00018148971399852476 0.013787872719406838 202.76706240870044 2.5701013891457409e-05 
-0.00092995606616407141 -0.00033286489796357382 0.0000000000000000 0.0000000000000000 0.0000000000000000 0.010000000000000000 202.92839321222309 0.0000000000000000 
-0.00063057683410024882 -0.00031975235046014926 0.0012499999999999998 0.00013881339876700111 7.2981357540723873e-05 0.0096912646197326834 202.84700324417622 8.6807038786224772e-05 
-0.00092577138548069666 0.0000000000000000 0.0012499999999999998 0.00021167941464793203 -2.0006881821210546e-16 0.0097103765446468447 202.84723899827918 3.7484380885458870e-05 
-0.0012293352982278940 -0.00034597744546699838 0.0012499999999999998 0.00031379020090875745 8.7384017263983241e-05 0.0097608107962518752 202.84817344980900 -1.9389487933923778e-05 
-0.00092995606616407141 -0.00033286489796357382 0.0024999999999999996 0.00046569166825997314 0.00016692182534905554 0.013666656478535473 202.76678348176213 -1.2197852771742492e-05 
-0.00092995606616407141 -0.00033286489796357382 0.0012499999999999998 0.00021516540410570679 7.9153581376487214e-05 0.0097179433272446391 202.84758834699261 5.0662011691983709e-05 
0.0000000000000000 0.0000000000000000 0.0000000000000000 0.0000000000000000 0.0000000000000000 0.010000000000000000 202.92592585363599 0.0000000000000000 
0.0000000000000000 0.0000000000000000 0.0024999999999999996 -6.8995949426866572e-15 -8.9616542933637068e-15 0.013491167465135350 202.76615551153546 -1.3659392517947823e-05 
0.0000000000000000 -0.00031082448364009956 0.0000000000000000 0.0000000000000000 0.0000000000000000 0.010000000000000004 202.92642271260431 0.0000000000000000 
-0.00031082448364009956 0.0000000000000000 0.0000000000000000 0.0000000000000000 0.0000000000000000 0.010000000000000002 202.92642271260428 0.0000000000000000 
0.0000000000000000 0.0000000000000000 0.0012499999999999998 -4.2249204664555461e-15 -8.8520143923489454e-15 0.0096647191823899907 202.84604068258574 -3.3669750515652202e-05 
0.0000000000000000 -0.00031082448364009956 0.0024999999999999996 -1.4215308129335507e-14 0.00014544420023717084 0.013508198860117551 202.76626837987232 -1.9920648304759373e-05 
-0.00031082448364009956 0.0000000000000000 0.0024999999999999996 0.00014544420023962872 -1.4079933499560011e-14 0.013508198860113377 202.76626837987232 -1.9920648304300555e-05 
-0.00031528841705012441 -0.00031528841705012441 0.0000000000000000 0.0000000000000000 0.0000000000000000 0.010000000000000005 202.92696232306645 0.0000000000000000 
0.0000000000000000 -0.00031082448364009956 0.0012499999999999998 -1.8341582145426375e-15 6.8017052992243172e-05 0.0096698281805096421 202.84634554623830 8.2308283273038146e-06 
-0.00031082448364009956 0.0000000000000000 0.0012499999999999998 6.8017052999050877e-05 -1.6323137713806937e-14 0.0096698281805095605 202.84634554623830 8.2308283269785184e-06 
-0.00031528841705012441 -0.00031528841705012441 0.0024999999999999996 0.00014882718263580370 0.00014882718261922487 0.013526347094697782 202.76638646734807 -2.5529582780108140e-05 
-0.00031528841705012441 -0.00031528841705012441 0.0012499999999999998 6.9847672733242767e-05 6.9847672717023143e-05 0.0096753888097697895 202.84667439520726 4.4714183760137788e-05 
0.00069195489093399677 -0.0012287767927745938 0.0000000000000000 0.0000000000000000 0.0000000000000000 0.010000000000000000 202.92987876436743 0.0000000000000000 
0.00063950470092029852 -0.00063950470092029863 0.0000000000000000 0.0000000000000000 0.0000000000000000 0.010000000000000000 202.92808429548484 0.0000000000000000 
0.00069195489093399677 -0.0012287767927745938 0.0024999999999999996 -0.00037064958206932912 0.00065310334405114807 0.013854289317310177 202.76715986153388 2.2420752885027195e-05 
0.00063950470092029852 -0.00063950470092029863 0.0024999999999999996 -0.00031685916760341607 0.00031685916760103376 0.013637568079153539 202.76662786143831 -2.9032550611795700e-05 
0.00034597744546699838 -0.0012293352982278940 0.0000000000000000 0.0000000000000000 0.0000000000000000 0.0099999999999999950 202.92928449091789 0.0000000000000000 
0.00066572979592714764 -0.00093414074684744627 0.0000000000000000 0.0000000000000000 0.0000000000000000 0.0099999999999999950 202.92898152992615 0.0000000000000000 
0.00031975235046014926 -0.00063057683410024882 0.0000000000000000 0.0000000000000000 0.0000000000000000 0.010000000000000007 202.92750193352873 0.0000000000000000 
0.00069195489093399677 -0.0012287767927745938 0.0012499999999999998 -0.00017731639255027376 0.00032429204461516693 0.0097861003175952824 202.84851931295066 -9.6822871180857995e-07 
0.00063950470092029852 -0.00063950470092029863 0.0012499999999999998 -0.00014512796563907667 0.00014512796563916769 0.0097092944065376302 202.84735607846159 0.00010242058614844987 
0.00034597744546699838 -0.0012293352982278940 0.0024999999999999996 -0.00018148971400495199 0.00063900325888393704 0.013787872719405200 202.76706240870013 2.5701013890787632e-05 
0.00066572979592714764 -0.00093414074684744627 0.0024999999999999996 -0.00034175787987889136 0.00047907684188118992 0.013729359504314686 202.76689386148610 -9.6836368838564206e-06 
0.00031975235046014926 -0.00063057683410024882 0.0024999999999999996 -0.00015467481131396506 0.00030488745225756744 0.013579975311998499 202.76650455482374 -2.9661564913383815e-05 
0.00033286489796357382 -0.00092995606616407152 0.0000000000000000 0.0000000000000000 0.0000000000000000 0.0099999999999999950 202.92839321222331 0.0000000000000000 
0.00034597744546699838 -0.0012293352982278940 0.0012499999999999998 -8.7384017265247827e-05 0.00031379020090763476 0.0097608107962638274 202.84817344980900 -1.9389487932980366e-05 
0.00066572979592714764 -0.00093414074684744627 0.0012499999999999998 -0.00015874404524087075 0.00022371250199841491 0.0097392550367369525 202.84793769570612 5.8506952364524345e-05 
0.00031975235046014926 -0.00063057683410024893 0.0012499999999999998 -7.2981357548728294e-05 0.00013881339876557159 0.0096912646197381876 202.84700324417625 8.6807038788288456e-05 
0.00033286489796357382 -0.00092995606616407152 0.0024999999999999996 -0.00016692182534883387 0.00046569166824950311 0.013666656478534406 202.76678348176193 -1.2197852772712739e-05 
0.00033286489796357382 -0.00092995606616407141 0.0012499999999999998 -7.9153581382168691e-05 0.00021516540409906239 0.0097179433272519995 202.84758834699264 5.0662011693743193e-05 
0.0011755764485346602 -0.0011755764485346602 0.0000000000000000 0.0000000000000000 0.0000000000000000 0.010000000000000000 202.93134200631135 0.0000000000000000 
0.0012287767927745938 -0.00069195489093399677 0.0000000000000000 0.0000000000000000 0.0000000000000000 0.010000000000000000 202.92987876436729 0.0000000000000000 
0.0011755764485346602 -0.0011755764485346602 0.0024999999999999996 -0.00065226992525011201 0.00065226992524278595 0.013997073476716011 202.76746624649795 2.5231368810721579e-05 
0.0012287767927745938 -0.00069195489093399677 0.0024999999999999996 -0.00065310334407737915 0.00037064958208005909 0.013854289317313377 202.76715986153386 2.2420752885456821e-05 
0.00093376566973432846 -0.0012021766206546270 0.0000000000000000 0.0000000000000000 0.0000000000000000 0.010000000000000009 202.93061038533938 0.0000000000000000 
0.0012021766206546270 -0.00093376566973432846 0.0000000000000000 0.0000000000000000 0.0000000000000000 0.0099999999999999985 202.93061038533932 0.0000000000000000 
0.00093414074684744616 -0.00066572979592714764 0.0000000000000000 0.0000000000000000 0.0000000000000000 0.010000000000000005 202.92898152992606 0.0000000000000000 
0.0011755764485346602 -0.0011755764485346602 0.0012499999999999998 -0.00033169577870605419 0.00033169577868470636 0.0098463942377913886 202.84940412640464 3.1186916273398132e-06 
0.0012287767927745938 -0.00069195489093399677 0.0012499999999999998 -0.00032429204461770027 0.00017731639253348907 0.0097861003175951609 202.84851931295057 -9.6822871246817085e-07 
0.00093376566973432846 -0.0012021766206546270 0.0024999999999999996 -0.00050878645850170514 0.00065093298116585799 0.013915198662268669 202.76731305401591 2.2309420870783190e-05 
0.0012021766206546270 -0.00093376566973432846 0.0024999999999999996 -0.00065093298117048428 0.00050878645850469797 0.013915198662267710 202.76731305401589 2.2309420870950351e-05 
0.00093414074684744616 -0.00066572979592714764 0.0024999999999999996 -0.00047907684189726088 0.00034175787989118095 0.013729359504315475 202.76689386148610 -9.6836368835002653e-06 
0.00093395320829088731 -0.00093395320829088731 0.0000000000000000 0.0000000000000000 0.0000000000000000 0.010000000000000002 202.92979595763271 0.0000000000000000 
0.00093376566973432846 -0.0012021766206546270 0.0012499999999999998 -0.00024881357324158351 0.00032786359615710818 0.0098103556261777171 202.84896171967762 3.7050573613946374e-06 
0.0012021766206546270 -0.00093376566973432835 0.0012499999999999998 -0.00032786359616419994 0.00024881357322995912 0.0098103556261778871 202.84896171967762 3.7050573612116000e-06 
0.00093414074684744616 -0.00066572979592714764 0.0012499999999999998 -0.00022371250200018238 0.00015874404522956358 0.0097392550367367096 202.84793769570609 5.8506952363893936e-05 
0.00093395320829088731 -0.00093395320829088731 0.0024999999999999996 -0.00049250178207659717 0.00049250178207201718 0.013809108407407459 202.76710345775101 3.1922598592705001e-06 
0.00093395320829088731 -0.00093395320829088731 0.0012499999999999998 -0.00023408729894252306 0.00023408729893553468 0.0097677770309839741 202.84844970769186 3.4676320098942922e-05 
0.00062164896728019912 0.0000000000000000 0.0000000000000000 0.0000000000000000 0.0000000000000000 0.010000000000000000 202.92691957157257 0.0000000000000000 
0.00062164896728019912 0.0000000000000000 0.0024999999999999996 -0.00029788835062795051 -9.8264619711737008e-15 0.013559468542088464 202.76638124820909 -2.6341063138452759e-05 
0.00063057683410024882 -0.00031975235046014932 0.0000000000000000 0.0000000000000000 0.0000000000000000 0.010000000000000000 202.92750193352870 0.0000000000000000 
0.00031082448364009956 0.0000000000000000 0.0000000000000000 0.0000000000000000 0.0000000000000000 0.010000000000000004 202.92642271260428 0.0000000000000000 
0.00062164896728019912 0.0000000000000000 0.0012499999999999998 -0.00013534446875427099 -6.9053458725287607e-16 0.0096847069193313085 202.84665040989083 6.4834229823680496e-05 
0.00063057683410024882 -0.00031975235046014932 0.0024999999999999996 -0.00030488745227799847 0.00015467481130440941 0.013579975311997582 202.76650455482371 -2.9661564912866122e-05 
0.00031082448364009956 0.0000000000000000 0.0024999999999999996 -0.00014544420024953345 -1.1884317598901334e-14 0.013508198860113476 202.76626837987226 -1.9920648304257384e-05 
0.00031528841705012441 -0.00031528841705012441 0.0000000000000000 0.0000000000000000 0.0000000000000000 0.010000000000000002 202.92696232306650 0.0000000000000000 
0.00063057683410024882 -0.00031975235046014932 0.0012499999999999998 -0.00013881339875925026 7.2981357549742782e-05 0.0096912646197371954 202.84700324417622 8.6807038787420132e-05 
0.00031082448364009956 0.0000000000000000 0.0012499999999999998 -6.8017053004782932e-05 -1.1040610801321211e-14 0.0096698281805096351 202.84634554623827 8.2308283273409875e-06 
0.00031528841705012441 -0.00031528841705012441 0.0024999999999999996 -0.00014882718264475512 0.00014882718262276454 0.013526347094697919 202.76638646734798 -2.5529582780528536e-05 
0.00031528841705012441 -0.00031528841705012446 0.0012499999999999998 -6.9847672722699538e-05 6.9847672724394796e-05 0.0096753888097703480 202.84667439520729 4.4714183761448291e-05 
0.0012298938036811942 0.0000000000000000 0.0000000000000000 0.0000000000000000 0.0000000000000000 0.010000000000000000 202.92869021746827 0.0000000000000000 
0.0012298938036811942 0.0000000000000000 0.0024999999999999996 -0.00063434475958617099 -3.1119734979643781e-15 0.013765607142611743 202.76696495586620 2.9100652218442820e-05 
0.0012293352982278940 -0.00034597744546699838 0.0000000000000000 0.0000000000000000 0.0000000000000000 0.010000000000000002 202.92928449091778 0.0000000000000000 
0.00092577138548069666 0.0000000000000000 0.0000000000000000 0.0000000000000000 0.0000000000000000 0.0099999999999999985 202.92780489452042 0.0000000000000000 
0.0012298938036811942 0.0000000000000000 0.0012499999999999998 -0.00031002238922347704 -1.0679817614657924e-14 0.0097522953404603104 202.84782758666722 -3.3505644878911310e-05 
0.0012293352982278940 -0.00034597744546699838 0.0024999999999999996 -0.00063900325890935594 0.00018148971401143403 0.013787872719406239 202.76706240870004 2.5701013891621113e-05 
0.00092577138548069666 0.0000000000000000 0.0024999999999999996 -0.00045957381715001282 -1.2259837547141508e-14 0.013644718982645973 202.76667310203766 -1.0563059378040007e-05 
0.00092995606616407141 -0.00033286489796357382 0.0000000000000000 0.0000000000000000 0.0000000000000000 0.0099999999999999985 202.92839321222323 0.0000000000000000 
0.0012293352982278940 -0.00034597744546699838 0.0012499999999999998 -0.00031379020090910678 8.7384017258037138e-05 0.0097608107962641015 202.84817344980891 -1.9389487934220616e-05 
0.00092577138548069666 0.0000000000000000 0.0012499999999999998 -0.00021167941465226634 -2.1531757908022392e-15 0.0097103765446506039 202.84723899827904 3.7484380885142235e-05 
0.00092995606616407141 -0.00033286489796357382 0.0024999999999999996 -0.00046569166826407159 0.00016692182535581521 0.013666656478540103 202.76678348176188 -1.2197852771817537e-05 
0.00092995606616407141 -0.00033286489796357382 0.0012499999999999998 -0.00021516540410226182 7.9153581374943256e-05 0.0097179433272502978 202.84758834699255 5.0662011692263528e-05 
-0.00063950470092029863 0.00063950470092029852 0.0000000000000000 0.0000000000000000 0.0000000000000000 0.010000000000000000 202.92808429548504 0.0000000000000000 
-0.0012287767927745938 0.00069195489093399677 0.0000000000000000 0.0000000000000000 0.0000000000000000 0.010000000000000000 202.92987876436734 0.0000000000000000 
-0.00063950470092029863 0.00063950470092029852 0.0024999999999999996 0.00031685916759958759 -0.00031685916762496443 0.013637568079155957 202.76662786143822 -2.9032550611673503e-05 
-0.0012287767927745938 0.00069195489093399677 0.0024999999999999996 0.00065310334405947669 -0.00037064958207783848 0.013854289317313920 202.76715986153371 2.2420752885438586e-05 
-0.00063057683410024882 0.00031975235046014926 0.0000000000000000 0.0000000000000000 0.0000000000000000 0.010000000000000005 202.92750193352879 0.0000000000000000 
-0.00093414074684744627 0.00066572979592714764 0.0000000000000000 0.0000000000000000 0.0000000000000000 0.010000000000000000 202.92898152992620 0.0000000000000000 
-0.0012293352982278940 0.00034597744546699838 0.0000000000000000 0.0000000000000000 0.0000000000000000 0.0099999999999999898 202.92928449091778 0.0000000000000000 
-0.00063950470092029863 0.00063950470092029852 0.0012499999999999998 0.00014512796565139115 -0.00014512796566698802 0.0097092944065398801 202.84735607846164 0.00010242058614840512 
-0.0012287767927745938 0.00069195489093399677 0.0012499999999999998 0.00032429204462151189 -0.00017731639254992524 0.0097861003175961133 202.84851931295054 -9.6822871223051035e-07 
-0.00063057683410024882 0.00031975235046014926 0.0024999999999999996 0.00030488745227032714 -0.00015467481133260892 0.013579975311999205 202.76650455482371 -2.9661564912650464e-05 
-0.00093414074684744627 0.00066572979592714764 0.0024999999999999996 0.00047907684189201703 -0.00034175787992461601 0.013729359504320802 202.76689386148598 -9.6836368834833636e-06 
-0.0012293352982278940 0.00034597744546699838 0.0024999999999999996 0.00063900325890041128 -0.00018148971402148827 0.013787872719405651 202.76706240870021 2.5701013891568705e-05 
-0.00092995606616407141 0.00033286489796357382 0.0000000000000000 0.0000000000000000 0.0000000000000000 0.010000000000000002 202.92839321222328 0.0000000000000000 
-0.00063057683410024893 0.00031975235046014926 0.0012499999999999998 0.00013881339874529901 -7.2981357562447734e-05 0.0096912646197370410 202.84700324417625 8.6807038787440786e-05 
-0.00093414074684744627 0.00066572979592714764 0.0012499999999999998 0.00022371250200444836 -0.00015874404524663678 0.0097392550367383871 202.84793769570609 5.8506952363972378e-05 
-0.0012293352982278940 0.00034597744546699838 0.0012499999999999998 0.00031379020089790654 -8.7384017269563874e-05 0.0097608107962593570 202.84817344980900 -1.9389487933648113e-05 
-0.00092995606616407141 0.00033286489796357382 0.0024999999999999996 0.00046569166825608790 -0.00016692182537739135 0.013666656478537039 202.76678348176196 -1.2197852771765108e-05 
-0.00092995606616407141 0.00033286489796357382 0.0012499999999999998 0.00021516540409427355 -7.9153581386774138e-05 0.0097179433272518642 202.84758834699264 5.0662011692628206e-05 
0.0000000000000000 0.00062164896728019912 0.0000000000000000 0.0000000000000000 0.0000000000000000 0.010000000000000000 202.92691957157211 0.0000000000000000 
0.0000000000000000 0.00062164896728019912 0.0024999999999999996 -2.4650630384948361e-15 -0.00029788835064502225 0.013559468542089340 202.76638124820911 -2.6341063138790841e-05 
0.0000000000000000 0.00031082448364009956 0.0000000000000000 0.0000000000000000 0.0000000000000000 0.010000000000000002 202.92642271260405 0.0000000000000000 
-0.00031975235046014932 0.00063057683410024882 0.0000000000000000 0.0000000000000000 0.0000000000000000 0.010000000000000000 202.92750193352856 0.0000000000000000 
0.0000000000000000 0.00062164896728019912 0.0012499999999999998 -1.3100315199240162e-15 -0.00013534446877607901 0.0096847069193294836 202.84665040989063 6.4834229825133448e-05 
0.0000000000000000 0.00031082448364009956 0.0024999999999999996 5.7051567394078348e-16 -0.00014544420025780437 0.013508198860116342 202.76626837987229 -1.9920648304026191e-05 
-0.00031975235046014932 0.00063057683410024882 0.0024999999999999996 0.00015467481130917294 -0.00030488745228580635 0.013579975311999577 202.76650455482365 -2.9661564913007502e-05 
-0.00031528841705012441 0.00031528841705012441 0.0000000000000000 0.0000000000000000 0.0000000000000000 0.010000000000000004 202.92696232306642 0.0000000000000000 
0.0000000000000000 0.00031082448364009956 0.0012499999999999998 -1.7604551867895554e-14 -6.8017053018614085e-05 0.0096698281805091754 202.84634554623815 8.2308283279711783e-06 
-0.00031975235046014932 0.00063057683410024882 0.0012499999999999998 7.2981357552215603e-05 -0.00013881339878668361 0.0096912646197379014 202.84700324417611 8.6807038788408816e-05 
-0.00031528841705012441 0.00031528841705012441 0.0024999999999999996 0.00014882718263401666 -0.00014882718264981794 0.013526347094698786 202.76638646734798 -2.5529582780026832e-05 
-0.00031528841705012446 0.00031528841705012441 0.0012499999999999998 6.9847672720591130e-05 -6.9847672744268764e-05 0.0096753888097714461 202.84667439520723 4.4714183761615759e-05 
-0.00069195489093399677 0.0012287767927745938 0.0000000000000000 0.0000000000000000 0.0000000000000000 0.010000000000000000 202.92987876436743 0.0000000000000000 
-0.0011755764485346602 0.0011755764485346602 0.0000000000000000 0.0000000000000000 0.0000000000000000 0.010000000000000000 202.93134200631172 0.0000000000000000 
-0.00069195489093399677 0.0012287767927745938 0.0024999999999999996 0.00037064958206344938 -0.00065310334406909639 0.013854289317320290 202.76715986153388 2.2420752885180390e-05 
-0.0011755764485346602 0.0011755764485346602 0.0024999999999999996 0.00065226992524212686 -0.00065226992525529949 0.013997073476722299 202.76746624649755 2.5231368810835763e-05 
-0.00066572979592714764 0.00093414074684744616 0.0000000000000000 0.0000000000000000 0.0000000000000000 0.010000000000000004 202.92898152992623 0.0000000000000000 
-0.00093376566973432846 0.0012021766206546270 0.0000000000000000 0.0000000000000000 0.0000000000000000 0.0099999999999999985 202.93061038533958 0.0000000000000000 
-0.0012021766206546270 0.00093376566973432846 0.0000000000000000 0.0000000000000000 0.0000000000000000 0.010000000000000007 202.93061038533955 0.0000000000000000 