# For a description of the Tecplot format see the Tecplot User's guide.
#
Variables=x,y,z,u,v,w,p,T
Zone f=fepoint, n=16513, e=15360, et=brick, c=black
-0.00117558 -0.00117558 0.00000 0.0000000000000000 0.0000000000000000 0.010000000000000000 202.93239182970640 0.0000000000000000 
-0.00069195489093399677 -0.0012287767927745938 0.0000000000000000 0.0000000000000000 0.0000000000000000 0.010000000000000000 202.93092517325690 0.0000000000000000 
-0.00063950470092029852 -0.00063950470092029852 0.0000000000000000 0.0000000000000000 0.0000000000000000 0.010000000000000000 202.92912421765951 0.0000000000000000 
-0.0012287767927745938 -0.00069195489093399677 0.0000000000000000 0.0000000000000000 0.0000000000000000 0.010000000000000000 202.93092517325627 0.0000000000000000 
-0.0011755764485346602 -0.0011755764485346602 0.0024999999999999996 0.00064859812206363027 0.00064859812206228380 0.014001708371211424 202.76839333770073 2.5327202721280101e-05 
-0.00069195489093399677 -0.0012287767927745938 0.0024999999999999996 0.00036824253062807459 0.00064884578042760795 0.013858207902658718 202.76808174353982 2.2477255367942967e-05 
-0.00063950470092029852 -0.00063950470092029852 0.0024999999999999996 0.00031431016638446013 0.00031431016637337459 0.013640668681700729 202.76754318419094 -2.9167187671673700e-05 
-0.0012287767927745938 -0.00069195489093399677 0.0024999999999999996 0.00064884578043548154 0.00036824253061850591 0.013858207902656249 202.76808174354005 2.2477255368236423e-05 
-0.00093376566973432846 -0.0012021766206546270 0.0000000000000000 0.0000000000000000 0.0000000000000000 0.0099999999999999967 202.93165850148165 0.0000000000000000 
-0.00066572979592714764 -0.00093414074684744616 0.0000000000000000 0.0000000000000000 0.0000000000000000 0.010000000000000000 202.93002469545820 0.0000000000000000 
-0.00093414074684744616 -0.00066572979592714764 0.0000000000000000 0.0000000000000000 0.0000000000000000 0.010000000000000004 202.93002469545789 0.0000000000000000 
-0.0012021766206546270 -0.00093376566973432846 0.0000000000000000 0.0000000000000000 0.0000000000000000 0.010000000000000000 202.93165850148134 0.0000000000000000 
-0.0011755764485346602 -0.0011755764485346602 0.0012499999999999998 0.00032888852672321647 0.00032888852671391603 0.0098392143035007616 202.85039258370358 3.0595809495610786e-06 
-0.00069195489093399677 -0.0012287767927745938 0.0012499999999999998 0.00017567722101003935 0.00032137668722125837 0.0097790812831086583 202.84950345839837 -1.0685928266199187e-06 
-0.00063950470092029852 -0.00063950470092029852 0.0012499999999999998 0.00014364902414196136 0.00014364902412635394 0.0097026282283938850 202.84833370092522 0.00010270058104699691 
-0.0012287767927745938 -0.00069195489093399677 0.0012499999999999998 0.00032137668722745117 0.00017567722101139710 0.0097790812831019831 202.84950345839815 -1.0685928271855091e-06 
-0.00093376566973432846 -0.0012021766206546270 0.0024999999999999996 0.00050567875107287899 0.00064694256671830842 0.013919404669944391 202.76823754062031 2.2401340296417311e-05 
-0.00066572979592714764 -0.00093414074684744616 0.0024999999999999996 0.00033924449919515585 0.00047555210708438234 0.013732768329299318 202.76781246386537 -9.7530875214658874e-06 
-0.00093414074684744616 -0.00066572979592714764 0.0024999999999999996 0.00047555210709542879 0.00033924449917767895 0.013732768329301011 202.76781246386548 -9.7530875213240721e-06 
-0.0012021766206546270 -0.00093376566973432846 0.0024999999999999996 0.00064694256672001875 0.00050567875106508932 0.013919404669941517 202.76823754062042 2.2401340296538240e-05 
-0.00093395320829088731 -0.00093395320829088731 0.0000000000000000 0.0000000000000000 0.0000000000000000 0.010000000000000002 202.93084159846975 0.0000000000000000 
-0.00093376566973432835 -0.0012021766206546270 0.0012499999999999998 0.00024659831222915421 0.00032499890939200713 0.0098032618984810992 202.84994802105098 3.6086763502965749e-06 
-0.00066572979592714764 -0.00093414074684744605 0.0012499999999999998 0.00015718518592440619 0.00022153108961524574 0.0097324253902543074 202.84891857966178 5.8633873649394371e-05 
-0.00093414074684744616 -0.00066572979592714764 0.0012499999999999998 0.00022153108962182455 0.00015718518591805063 0.0097324253902499446 202.84891857966170 5.8633873648965176e-05 
-0.0012021766206546270 -0.00093376566973432835 0.0012499999999999998 0.00032499890939985003 0.00024659831222717478 0.0098032618984788215 202.84994802105086 3.6086763500314692e-06 
-0.00093395320829088731 -0.00093395320829088731 0.0024999999999999996 0.00048915365028486760 0.00048915365027364383 0.013812831513415643 202.76802500224289 3.2108851326151029e-06 
-0.00093395320829088731 -0.00093395320829088731 0.0012499999999999998 0.00023188780035919963 0.00023188780035350451 0.0097608241649384721 202.84943330035634 3.4665681259917586e-05 
0.0000000000000000 -0.0012298938036811942 0.0000000000000000 0.0000000000000000 0.0000000000000000 0.010000000000000000 202.92973492925401 0.0000000000000000 
0.0000000000000000 -0.00062164896728019912 0.0000000000000000 0.0000000000000000 0.0000000000000000 0.010000000000000000 202.92795795766949 0.0000000000000000 
0.0000000000000000 -0.0012298938036811942 0.0024999999999999996 -1.2934984872305473e-16 0.00062982849094602052 0.013769152063407928 202.76788352622918 2.9062216019169329e-05 
0.0000000000000000 -0.00062164896728019912 0.0024999999999999996 3.1996344954191394e-15 0.00029529952347513673 0.013562350135372297 202.76729371679630 -2.6357573023999556e-05 
-0.00034597744546699838 -0.0012293352982278940 0.0000000000000000 0.0000000000000000 0.0000000000000000 0.010000000000000002 202.93033005125545 0.0000000000000000 
0.0000000000000000 -0.00092577138548069666 0.0000000000000000 0.0000000000000000 0.0000000000000000 0.010000000000000002 202.92884644346174 0.0000000000000000 
-0.00031975235046014926 -0.00063057683410024882 0.0000000000000000 0.0000000000000000 0.0000000000000000 0.0099999999999999985 202.92854108766448 0.0000000000000000 
0.0000000000000000 -0.0012298938036811942 0.0012499999999999998 3.0627070428505147e-15 0.00030712360052444643 0.0097454050834109244 202.84880922774158 -3.3510216511205566e-05 
0.0000000000000000 -0.00062164896728019912 0.0012499999999999998 1.5038357802033192e-14 0.00013392312635545251 0.0096782017794532840 202.84762583723290 6.4909500778886903e-05 
-0.00034597744546699838 -0.0012293352982278940 0.0024999999999999996 0.00018023648859912301 0.00063455439013731184 0.013791505078410484 202.76798263488450 2.5688661404395674e-05 
0.0000000000000000 -0.00092577138548069666 0.0024999999999999996 3.2852339049421974e-15 0.00045589822687689259 0.013647839946426954 202.76758862151274 -1.0690049275322832e-05 
-0.00031975235046014926 -0.00063057683410024882 0.0024999999999999996 0.00015336327316058983 0.00030229104578210944 0.013582909222559000 202.76741845049361 -2.9736685865817622e-05 
-0.00033286489796357382 -0.00092995606616407141 0.0000000000000000 0.0000000000000000 0.0000000000000000 0.0099999999999999985 202.92943556945997 0.0000000000000000 
-0.00034597744546699838 -0.0012293352982278940 0.0012499999999999998 8.6569937637213807e-05 0.00031088964998056293 0.0097538853365699753 202.84915634306998 -1.9427552590602801e-05 
0.0000000000000000 -0.00092577138548069677 0.0012499999999999998 -2.8905370233278038e-16 0.00020953803939929180 0.0097036994136774270 202.84821753248724 3.7767504955007827e-05 
-0.00031975235046014926 -0.00063057683410024882 0.0012499999999999998 7.2245228051792969e-05 0.00013736791408537911 0.0096847146120192257 202.84797976907905 8.6993339577193403e-05 
-0.00033286489796357382 -0.00092995606616407141 0.0024999999999999996 0.00016562245318056407 0.00046204721272145074 0.013669846465068376 202.76770054268906 -1.2320349174761950e-05 
-0.00033286489796357382 -0.00092995606616407141 0.0012499999999999998 7.8378631735766184e-05 0.00021300983888184282 0.0097112240108293141 202.84856805607453 5.0912084785908488e-05 
-0.00062164896728019912 0.0000000000000000 0.0000000000000000 0.0000000000000000 0.0000000000000000 0.010000000000000000 202.92795795766932 0.0000000000000000 
-0.0012298938036811942 0.0000000000000000 0.0000000000000000 0.0000000000000000 0.0000000000000000 0.010000000000000000 202.92973492925395 0.0000000000000000 
-0.00062164896728019912 0.0000000000000000 0.0024999999999999996 0.00029529952348048965 -5.5039708839461300e-15 0.013562350135372906 202.76729371679627 -2.6357573023345586e-05 
-0.0012298938036811942 0.0000000000000000 0.0024999999999999996 0.00062982849096082563 -9.1238296226009405e-15 0.013769152063408547 202.76788352622933 2.9062216019910947e-05 
-0.00063057683410024882 -0.00031975235046014926 0.0000000000000000 0.0000000000000000 0.0000000000000000 0.010000000000000002 202.92854108766443 0.0000000000000000 
-0.00092577138548069666 0.0000000000000000 0.0000000000000000 0.0000000000000000 0.0000000000000000 0.010000000000000002 202.92884644346162 0.0000000000000000 
-0.0012293352982278940 -0.00034597744546699838 0.0000000000000000 0.0000000000000000 0.0000000000000000 0.010000000000000000 202.93033005125511 0.0000000000000000 
-0.00062164896728019912 0.0000000000000000 0.0012499999999999998 0.00013392312635728034 2.0529368692757491e-15 0.0096782017794506871 202.84762583723278 6.4909500778316897e-05 
-0.0012298938036811942 0.0000000000000000 0.0012499999999999998 0.00030712360052820460 -2.4663794419858794e-15 0.0097454050834051252 202.84880922774164 -3.3510216512088236e-05 
-0.00063057683410024882 -0.00031975235046014926 0.0024999999999999996 0.00030229104577848668 0.00015336327314782297 0.013582909222559366 202.76741845049361 -2.9736685865472894e-05 
-0.00092577138548069666 0.0000000000000000 0.0024999999999999996 0.00045589822688511756 -1.2677346883640363e-14 0.013647839946423459 202.76758862151280 -1.0690049274591258e-05 
-0.0012293352982278940 -0.00034597744546699838 0.0024999999999999996 0.00063455439015609218 0.00018023648858538291 0.013791505078410484 202.76798263488470 2.5688661404981004e-05 
-0.00092995606616407141 -0.00033286489796357382 0.0000000000000000 0.0000000000000000 0.0000000000000000 0.010000000000000000 202.92943556945977 0.0000000000000000 
-0.00063057683410024882 -0.00031975235046014926 0.0012499999999999998 0.00013736791409443033 7.2245228042611010e-05 0.0096847146120163669 202.84797976907902 8.6993339576766119e-05 
-0.00092577138548069666 0.0000000000000000 0.0012499999999999998 0.00020953803940136176 6.9551118195588564e-15 0.0097036994136749273 202.84821753248724 3.7767504954103792e-05 
-0.0012293352982278940 -0.00034597744546699838 0.0012499999999999998 0.00031088964997880153 8.6569937635133941e-05 0.0097538853365612636 202.84915634306992 -1.9427552591444014e-05 
-0.00092995606616407141 -0.00033286489796357382 0.0024999999999999996 0.00046204721272947611 0.00016562245316819864 0.013669846465072010 202.76770054268917 -1.2320349174298134e-05 
-0.00092995606616407141 -0.00033286489796357382 0.0012499999999999998 0.00021300983888569423 7.8378631731726095e-05 0.0097112240108234264 202.84856805607447 5.0912084785109268e-05 
0.0000000000000000 0.0000000000000000 0.0000000000000000 0.0000000000000000 0.0000000000000000 0.010000000000000000 202.92696291818305 0.0000000000000000 
0.0000000000000000 0.0000000000000000 0.0024999999999999996 -5.1579450974821637e-15 -9.0203990431595534e-15 0.013493892800322878 202.76706547094051 -1.3274387142603213e-05 
0.0000000000000000 -0.00031082448364009956 0.0000000000000000 0.0000000000000000 0.0000000000000000 0.010000000000000004 202.92746043792627 0.0000000000000000 
-0.00031082448364009956 0.0000000000000000 0.0000000000000000 0.0000000000000000 0.0000000000000000 0.010000000000000002 202.92746043792619 0.0000000000000000 
0.0000000000000000 0.0000000000000000 0.0012499999999999998 2.0395852587858533e-15 -1.8059965524734560e-15 0.0096583710397384684 202.84701419456178 -3.4659174185738500e-05 
0.0000000000000000 -0.00031082448364009956 0.0024999999999999996 -1.6030445144724036e-15 0.00014411813387291039 0.013510959146047783 202.76717959386838 -1.9675767162249471e-05 
-0.00031082448364009956 0.0000000000000000 0.0024999999999999996 0.00014411813388097599 -1.4802378474185816e-14 0.013510959146044142 202.76717959386838 -1.9675767161870844e-05 
-0.00031528841705012441 -0.00031528841705012441 0.0000000000000000 0.0000000000000000 0.0000000000000000 0.010000000000000005 202.92800076279536 0.0000000000000000 
0.0000000000000000 -0.00031082448364009956 0.0012499999999999998 6.0931602623588635e-15 6.7309108666041689e-05 0.0096634387498618305 202.84732001589731 7.6230836925420219e-06 
-0.00031082448364009956 0.0000000000000000 0.0012499999999999998 6.7309108668615084e-05 -1.2450273734919558e-15 0.0096634387498615894 202.84732001589728 7.6230836924139192e-06 
-0.00031528841705012441 -0.00031528841705012441 0.0024999999999999996 0.00014749537180416779 0.00014749537179221389 0.013529146955591168 202.76729902218099 -2.5403879214523940e-05 
-0.00031528841705012441 -0.00031528841705012441 0.0012499999999999998 6.9127847696948312e-05 6.9127847688869298e-05 0.0096689564869782349 202.84764989248816 4.4409526283405115e-05 
0.00069195489093399677 -0.0012287767927745938 0.0000000000000000 0.0000000000000000 0.0000000000000000 0.010000000000000000 202.93092517325678 0.0000000000000000 
0.00063950470092029852 -0.00063950470092029863 0.0000000000000000 0.0000000000000000 0.0000000000000000 0.010000000000000000 202.92912421765959 0.0000000000000000 
0.00069195489093399677 -0.0012287767927745938 0.0024999999999999996 -0.00036824253063084494 0.00064884578041407993 0.013858207902659795 202.76808174353994 2.2477255368010529e-05 
0.00063950470092029852 -0.00063950470092029863 0.0024999999999999996 -0.00031431016638354577 0.00031431016637392559 0.013640668681700517 202.76754318419088 -2.9167187672004284e-05 
0.00034597744546699838 -0.0012293352982278940 0.0000000000000000 0.0000000000000000 0.0000000000000000 0.0099999999999999950 202.93033005125540 0.0000000000000000 
0.00066572979592714764 -0.00093414074684744627 0.0000000000000000 0.0000000000000000 0.0000000000000000 0.0099999999999999950 202.93002469545820 0.0000000000000000 
0.00031975235046014926 -0.00063057683410024882 0.0000000000000000 0.0000000000000000 0.0000000000000000 0.010000000000000007 202.92854108766454 0.0000000000000000 
0.00069195489093399677 -0.0012287767927745938 0.0012499999999999998 -0.00017567722100976556 0.00032137668721007455 0.0097790812831115483 202.84950345839837 -1.0685928266935112e-06 
0.00063950470092029852 -0.00063950470092029863 0.0012499999999999998 -0.00014364902412495445 0.00014364902412505946 0.0097026282283981403 202.84833370092525 0.00010270058104761669 
0.00034597744546699838 -0.0012293352982278940 0.0024999999999999996 -0.00018023648859389688 0.00063455439012548482 0.013791505078413244 202.76798263488456 2.5688661404361816e-05 
0.00066572979592714764 -0.00093414074684744627 0.0024999999999999996 -0.00033924449918169104 0.00047555210707448948 0.013732768329301837 202.76781246386543 -9.7530875215651071e-06 
0.00031975235046014926 -0.00063057683410024882 0.0024999999999999996 -0.00015336327315872616 0.00030229104578294259 0.013582909222559907 202.76741845049361 -2.9736685866218269e-05 
0.00033286489796357382 -0.00092995606616407152 0.0000000000000000 0.0000000000000000 0.0000000000000000 0.0099999999999999950 202.92943556945997 0.0000000000000000 
0.00034597744546699838 -0.0012293352982278940 0.0012499999999999998 -8.6569937635016142e-05 0.00031088964997151331 0.0097538853365709988 202.84915634306998 -1.9427552590440706e-05 
0.00066572979592714764 -0.00093414074684744627 0.0012499999999999998 -0.00015718518592431485 0.00022153108960900486 0.0097324253902576555 202.84891857966181 5.8633873649598729e-05 
0.00031975235046014926 -0.00063057683410024893 0.0012499999999999998 -7.2245228038813808e-05 0.00013736791408403289 0.0096847146120206361 202.84797976907907 8.6993339577871328e-05 
0.00033286489796357382 -0.00092995606616407152 0.0024999999999999996 -0.00016562245317168969 0.00046204721271879461 0.013669846465072438 202.76770054268908 -1.2320349174969067e-05 
0.00033286489796357382 -0.00092995606616407141 0.0012499999999999998 -7.8378631731672400e-05 0.00021300983887648572 0.0097112240108295257 202.84856805607450 5.0912084786352326e-05 
0.0011755764485346602 -0.0011755764485346602 0.0000000000000000 0.0000000000000000 0.0000000000000000 0.010000000000000000 202.93239182970615 0.0000000000000000 
0.0012287767927745938 -0.00069195489093399677 0.0000000000000000 0.0000000000000000 0.0000000000000000 0.010000000000000000 202.93092517325687 0.0000000000000000 
0.0011755764485346602 -0.0011755764485346602 0.0024999999999999996 -0.00064859812207012160 0.00064859812205563970 0.014001708371213806 202.76839333770084 2.5327202721441477e-05 
0.0012287767927745938 -0.00069195489093399677 0.0024999999999999996 -0.00064884578043435126 0.00036824253061991819 0.013858207902660099 202.76808174353988 2.2477255368343057e-05 
0.00093376566973432846 -0.0012021766206546270 0.0000000000000000 0.0000000000000000 0.0000000000000000 0.010000000000000009 202.93165850148148 0.0000000000000000 
0.0012021766206546270 -0.00093376566973432846 0.0000000000000000 0.0000000000000000 0.0000000000000000 0.0099999999999999985 202.93165850148151 0.0000000000000000 
0.00093414074684744616 -0.00066572979592714764 0.0000000000000000 0.0000000000000000 0.0000000000000000 0.010000000000000005 202.93002469545823 0.0000000000000000 
0.0011755764485346602 -0.0011755764485346602 0.0012499999999999998 -0.00032888852671398092 0.00032888852670132540 0.0098392143035074386 202.85039258370352 3.0595809494372288e-06 
0.0012287767927745938 -0.00069195489093399677 0.0012499999999999998 -0.00032137668722501578 0.00017567722098911997 0.0097790812831117704 202.84950345839837 -1.0685928274127818e-06 
0.00093376566973432846 -0.0012021766206546270 0.0024999999999999996 -0.00050567875106955840 0.00064694256670392160 0.013919404669944766 202.76823754062042 2.2401340296585796e-05 
0.0012021766206546270 -0.00093376566973432846 0.0024999999999999996 -0.00064694256671287765 0.00050567875105911070 0.013919404669944069 202.76823754062036 2.2401340296717764e-05 
0.00093414074684744616 -0.00066572979592714764 0.0024999999999999996 -0.00047555210708639175 0.00033924449917224937 0.013732768329301278 202.76781246386537 -9.7530875213340145e-06 
0.00093395320829088731 -0.00093395320829088731 0.0000000000000000 0.0000000000000000 0.0000000000000000 0.010000000000000002 202.93084159846984 0.0000000000000000 
0.00093376566973432846 -0.0012021766206546270 0.0012499999999999998 -0.00024659831222320297 0.00032499890938902281 0.0098032618984872748 202.84994802105095 3.6086763500582507e-06 
0.0012021766206546270 -0.00093376566973432835 0.0012499999999999998 -0.00032499890939727342 0.00024659831221253187 0.0098032618984876651 202.84994802105092 3.6086763498418778e-06 
0.00093414074684744616 -0.00066572979592714764 0.0012499999999999998 -0.00022153108961411546 0.00015718518590719102 0.0097324253902575115 202.84891857966181 5.8633873649055280e-05 
0.00093395320829088731 -0.00093395320829088731 0.0024999999999999996 -0.00048915365027996105 0.00048915365026599782 0.013812831513415686 202.76802500224292 3.2108851327431455e-06 
0.00093395320829088731 -0.00093395320829088731 0.0012499999999999998 -0.00023188780035385300 0.00023188780034341257 0.0097608241649456539 202.84943330035634 3.4665681259776871e-05 
0.00062164896728019912 0.0000000000000000 0.0000000000000000 0.0000000000000000 0.0000000000000000 0.010000000000000000 202.92795795766946 0.0000000000000000 
0.00062164896728019912 0.0000000000000000 0.0024999999999999996 -0.00029529952348820456 -1.0553142295937840e-14 0.013562350135368172 202.76729371679627 -2.6357573023225141e-05 
0.00063057683410024882 -0.00031975235046014932 0.0000000000000000 0.0000000000000000 0.0000000000000000 0.010000000000000000 202.92854108766454 0.0000000000000000 
0.00031082448364009956 0.0000000000000000 0.0000000000000000 0.0000000000000000 0.0000000000000000 0.010000000000000004 202.92746043792624 0.0000000000000000 
0.00062164896728019912 0.0000000000000000 0.0012499999999999998 -0.00013392312635149102 -6.4022168311057778e-15 0.0096782017794520888 202.84762583723287 6.4909500778146786e-05 
0.00063057683410024882 -0.00031975235046014932 0.0024999999999999996 -0.00030229104579259091 0.00015336327314824881 0.013582909222555726 202.76741845049358 -2.9736685865808844e-05 
0.00031082448364009956 0.0000000000000000 0.0024999999999999996 -0.00014411813388459191 -1.0798880166749663e-14 0.013510959146042842 202.76717959386838 -1.9675767161920318e-05 
0.00031528841705012441 -0.00031528841705012441 0.0000000000000000 0.0000000000000000 0.0000000000000000 0.010000000000000002 202.92800076279542 0.0000000000000000 
0.00063057683410024882 -0.00031975235046014932 0.0012499999999999998 -0.00013736791407406750 7.2245228041119988e-05 0.0096847146120199144 202.84797976907907 8.6993339577289477e-05 
0.00031082448364009956 0.0000000000000000 0.0012499999999999998 -6.7309108663717607e-05 -7.9342647429681219e-15 0.0096634387498608539 202.84732001589731 7.6230836924182044e-06 
0.00031528841705012441 -0.00031528841705012441 0.0024999999999999996 -0.00014749537180784399 0.00014749537179368439 0.013529146955591391 202.76729902218099 -2.5403879214948896e-05 
0.00031528841705012441 -0.00031528841705012446 0.0012499999999999998 -6.9127847681806141e-05 6.9127847687033215e-05 0.0096689564869774283 202.84764989248819 4.4409526283940189e-05 
0.0012298938036811942 0.0000000000000000 0.0000000000000000 0.0000000000000000 0.0000000000000000 0.010000000000000000 202.92973492925393 0.0000000000000000 
0.0012298938036811942 0.0000000000000000 0.0024999999999999996 -0.00062982849096440035 -1.1231617639583125e-14 0.013769152063405470 202.76788352622910 2.9062216020244306e-05 
0.0012293352982278940 -0.00034597744546699838 0.0000000000000000 0.0000000000000000 0.0000000000000000 0.010000000000000002 202.93033005125540 0.0000000000000000 
0.00092577138548069666 0.0000000000000000 0.0000000000000000 0.0000000000000000 0.0000000000000000 0.0099999999999999985 202.92884644346168 0.0000000000000000 
0.0012298938036811942 0.0000000000000000 0.0012499999999999998 -0.00030712360052891763 -1.1065381030368900e-14 0.0097454050834102253 202.84880922774153 -3.3510216512424325e-05 
0.0012293352982278940 -0.00034597744546699838 0.0024999999999999996 -0.00063455439013916485 0.00018023648859152641 0.013791505078409561 202.76798263488450 2.5688661405078054e-05 
0.00092577138548069666 0.0000000000000000 0.0024999999999999996 -0.00045589822688663138 -1.2690686158824014e-14 0.013647839946418366 202.76758862151269 -1.0690049274211003e-05 
0.00092995606616407141 -0.00033286489796357382 0.0000000000000000 0.0000000000000000 0.0000000000000000 0.0099999999999999985 202.92943556945997 0.0000000000000000 
0.0012293352982278940 -0.00034597744546699838 0.0012499999999999998 -0.00031088964997848852 8.6569937624382748e-05 0.0097538853365712174 202.84915634306992 -1.9427552591666990e-05 
0.00092577138548069666 0.0000000000000000 0.0012499999999999998 -0.00020953803939519473 1.2458014547198759e-15 0.0097036994136768216 202.84821753248718 3.7767504953765094e-05 
0.00092995606616407141 -0.00033286489796357382 0.0024999999999999996 -0.00046204721272832068 0.00016562245316870477 0.013669846465071266 202.76770054268903 -1.2320349174279979e-05 
0.00092995606616407141 -0.00033286489796357382 0.0012499999999999998 -0.00021300983887663938 7.8378631723867838e-05 0.0097112240108285092 202.84856805607450 5.0912084785249056e-05 
-0.00063950470092029863 0.00063950470092029852 0.0000000000000000 0.0000000000000000 0.0000000000000000 0.010000000000000000 202.92912421765962 0.0000000000000000 
-0.0012287767927745938 0.00069195489093399677 0.0000000000000000 0.0000000000000000 0.0000000000000000 0.010000000000000000 202.93092517325672 0.0000000000000000 
-0.00063950470092029863 0.00063950470092029852 0.0024999999999999996 0.00031431016637039364 -0.00031431016638973266 0.013640668681703844 202.76754318419097 -2.9167187671871059e-05 
-0.0012287767927745938 0.00069195489093399677 0.0024999999999999996 0.00064884578042129269 -0.00036824253062495035 0.013858207902661356 202.76808174353982 2.2477255368383813e-05 
-0.00063057683410024882 0.00031975235046014926 0.0000000000000000 0.0000000000000000 0.0000000000000000 0.010000000000000005 202.92854108766448 0.0000000000000000 
-0.00093414074684744627 0.00066572979592714764 0.0000000000000000 0.0000000000000000 0.0000000000000000 0.010000000000000000 202.93002469545817 0.0000000000000000 
-0.0012293352982278940 0.00034597744546699838 0.0000000000000000 0.0000000000000000 0.0000000000000000 0.0099999999999999898 202.93033005125534 0.0000000000000000 
-0.00063950470092029863 0.00063950470092029852 0.0012499999999999998 0.00014364902413007430 -0.00014364902414458944 0.0097026282283970370 202.84833370092531 0.00010270058104760986 
-0.0012287767927745938 0.00069195489093399677 0.0012499999999999998 0.00032137668721752530 -0.00017567722100575523 0.0097790812831108059 202.84950345839826 -1.0685928271238965e-06 
-0.00063057683410024882 0.00031975235046014926 0.0024999999999999996 0.00030229104578664742 -0.00015336327316921541 0.013582909222559950 202.76741845049364 -2.9736685865617723e-05 
-0.00093414074684744627 0.00066572979592714764 0.0024999999999999996 0.00047555210707923785 -0.00033924449920147697 0.013732768329305627 202.76781246386543 -9.7530875212625910e-06 
-0.0012293352982278940 0.00034597744546699838 0.0024999999999999996 0.00063455439014413874 -0.00018023648860315727 0.013791505078411854 202.76798263488459 2.5688661405017623e-05 
-0.00092995606616407141 0.00033286489796357382 0.0000000000000000 0.0000000000000000 0.0000000000000000 0.010000000000000002 202.92943556945988 0.0000000000000000 
-0.00063057683410024893 0.00031975235046014926 0.0012499999999999998 0.00013736791407726348 -7.2245228048351846e-05 0.0096847146120193732 202.84797976907907 8.6993339577503390e-05 
-0.00093414074684744627 0.00066572979592714764 0.0012499999999999998 0.00022153108961221255 -0.00015718518592656061 0.0097324253902569720 202.84891857966181 5.8633873649208498e-05 
-0.0012293352982278940 0.00034597744546699838 0.0012499999999999998 0.00031088964996771426 -8.6569937633399760e-05 0.0097538853365680862 202.84915634306998 -1.9427552591104794e-05 
-0.00092995606616407141 0.00033286489796357382 0.0024999999999999996 0.00046204721272191782 -0.00016562245318580448 0.013669846465072657 202.76770054268911 -1.2320349174275623e-05 
-0.00092995606616407141 0.00033286489796357382 0.0012499999999999998 0.00021300983887600431 -7.8378631733406418e-05 0.0097112240108294633 202.84856805607450 5.0912084785645454e-05 
0.0000000000000000 0.00062164896728019912 0.0000000000000000 0.0000000000000000 0.0000000000000000 0.010000000000000000 202.92795795766912 0.0000000000000000 
0.0000000000000000 0.00062164896728019912 0.0024999999999999996 -8.3821758322554046e-15 -0.00029529952350218117 0.013562350135371071 202.76729371679636 -2.6357573023552066e-05 
0.0000000000000000 0.00031082448364009956 0.0000000000000000 0.0000000000000000 0.0000000000000000 0.010000000000000002 202.92746043792607 0.0000000000000000 
-0.00031975235046014932 0.00063057683410024882 0.0000000000000000 0.0000000000000000 0.0000000000000000 0.010000000000000000 202.92854108766437 0.0000000000000000 
0.0000000000000000 0.00062164896728019912 0.0012499999999999998 1.3755065393487129e-15 -0.00013392312636341253 0.0096782017794503298 202.84762583723273 6.4909500779120616e-05 
0.0000000000000000 0.00031082448364009956 0.0024999999999999996 -4.3221983261061141e-15 -0.00014411813389490329 0.013510959146043040 202.76717959386843 -1.9675767161762217e-05 
-0.00031975235046014932 0.00063057683410024882 0.0024999999999999996 0.00015336327315013972 -0.00030229104580348557 0.013582909222560380 202.76741845049366 -2.9736685865902326e-05 
-0.00031528841705012441 0.00031528841705012441 0.0000000000000000 0.0000000000000000 0.0000000000000000 0.010000000000000004 202.92800076279528 0.0000000000000000 
0.0000000000000000 0.00031082448364009956 0.0012499999999999998 -6.7460274608566037e-15 -6.7309108674166009e-05 0.0096634387498601843 202.84732001589725 7.6230836928689047e-06 
-0.00031975235046014932 0.00063057683410024882 0.0012499999999999998 7.2245228045111315e-05 -0.00013736791409457003 0.0096847146120182595 202.84797976907902 8.6993339577969475e-05 
-0.00031528841705012441 0.00031528841705012441 0.0024999999999999996 0.00014749537179967664 -0.00014749537181521757 0.013529146955592264 202.76729902218102 -2.5403879214520108e-05 
-0.00031528841705012446 0.00031528841705012441 0.0012499999999999998 6.9127847687107565e-05 -6.9127847694295215e-05 0.0096689564869779435 202.84764989248816 4.4409526284170921e-05 
-0.00069195489093399677 0.0012287767927745938 0.0000000000000000 0.0000000000000000 0.0000000000000000 0.010000000000000000 202.93092517325667 0.0000000000000000 
-0.0011755764485346602 0.0011755764485346602 0.0000000000000000 0.0000000000000000 0.0000000000000000 0.010000000000000000 202.93239182970646 0.0000000000000000 
-0.00069195489093399677 0.0012287767927745938 0.0024999999999999996 0.00036824253061587504 -0.00064884578042535205 0.013858207902660345 202.76808174353997 2.2477255368125675e-05 
-0.0011755764485346602 0.0011755764485346602 0.0024999999999999996 0.00064859812205759039 -0.00064859812206428903 0.014001708371212252 202.76839333770056 2.5327202721560038e-05 
-0.00066572979592714764 0.00093414074684744616 0.0000000000000000 0.0000000000000000 0.0000000000000000 0.010000000000000004 202.93002469545814 0.0000000000000000 
-0.00093376566973432846 0.0012021766206546270 0.0000000000000000 0.0000000000000000 0.0000000000000000 0.0099999999999999985 202.93165850148154 0.0000000000000000 
-0.0012021766206546270 0.00093376566973432846 0.0000000000000000 0.0000000000000000 0.0000000000000000 0.010000000000000007 202.93165850148159 0.0000000000000000 