# For a description of the Tecplot format see the Tecplot User's guide.
#
Variables=x,y,z,u,v,w,p,T
Zone f=fepoint, n=16513, e=15360, et=brick, c=black
-0.00117558 -0.00117558 0.00000 0.0000000000000000 0.0000000000000000 0.010000000000000000 202.48233685360833 0.0000000000000000 
-0.00069195489093399677 -0.0012287767927745938 0.0000000000000000 0.0000000000000000 0.0000000000000000 0.010000000000000000 202.48084401483572 0.0000000000000000 
-0.00063950470092029852 -0.00063950470092029852 0.0000000000000000 0.0000000000000000 0.0000000000000000 0.010000000000000000 202.47926475949629 0.0000000000000000 
-0.0012287767927745938 -0.00069195489093399677 0.0000000000000000 0.0000000000000000 0.0000000000000000 0.010000000000000000 202.48084401483632 0.0000000000000000 
-0.0011755764485346602 -0.0011755764485346602 0.0024999999999999996 0.00092455817511949466 0.00092455817513334621 0.010204549527769204 202.61188489231171 -2.1046093221178848e-05 
-0.00069195489093399677 -0.0012287767927745938 0.0024999999999999996 0.00056813013466935176 0.0010010450270890388 0.010179021706545933 202.61132652077353 -2.5907679897411226e-05 
-0.00063950470092029852 -0.00063950470092029852 0.0024999999999999996 0.00054929252469674964 0.00054929252470780167 0.010108798521373004 202.61042211086715 -2.9737050628613118e-06 
-0.0012287767927745938 -0.00069195489093399677 0.0024999999999999996 0.0010010450270781270 0.00056813013468290700 0.010179021706547569 202.61132652077328 -2.5907679897681681e-05 
-0.00093376566973432846 -0.0012021766206546270 0.0000000000000000 0.0000000000000000 0.0000000000000000 0.0099999999999999967 202.48159043422203 0.0000000000000000 
-0.00066572979592714764 -0.00093414074684744616 0.0000000000000000 0.0000000000000000 0.0000000000000000 0.010000000000000000 202.48005438716601 0.0000000000000000 
-0.00093414074684744616 -0.00066572979592714764 0.0000000000000000 0.0000000000000000 0.0000000000000000 0.010000000000000004 202.48005438716632 0.0000000000000000 
-0.0012021766206546270 -0.00093376566973432846 0.0000000000000000 0.0000000000000000 0.0000000000000000 0.010000000000000000 202.48159043422234 0.0000000000000000 
-0.0011755764485346602 -0.0011755764485346602 0.0012499999999999998 0.00081976725764907905 0.00081976725764323693 0.011846073578549039 202.54711087296005 1.5970186814522976e-05 
-0.00069195489093399677 -0.0012287767927745938 0.0012499999999999998 0.00046348066043820602 0.00083130872059045623 0.011756449415870901 202.54608526780464 2.4503942025242120e-05 
-0.00063950470092029852 -0.00063950470092029852 0.0012499999999999998 0.00040581423618266891 0.00040581423618112468 0.011622335071024423 202.54484343518172 1.0349852833924554e-05 
-0.0012287767927745938 -0.00069195489093399677 0.0012499999999999998 0.00083130872060211173 0.00046348066043001352 0.011756449415876903 202.54608526780481 2.4503942025312864e-05 
-0.00093376566973432846 -0.0012021766206546270 0.0024999999999999996 0.00075488614744072594 0.00096452834949413348 0.010192136927581407 202.61160570654260 -2.5579692334917867e-05 
-0.00066572979592714764 -0.00093414074684744616 0.0024999999999999996 0.00056196085467413292 0.00078835116088446814 0.010143112601759170 202.61087431582035 -2.1201723731390131e-05 
-0.00093414074684744616 -0.00066572979592714764 0.0024999999999999996 0.00078835116087622777 0.00056196085469201889 0.010143112601757239 202.61087431582021 -2.1201723731663137e-05 
-0.0012021766206546270 -0.00093376566973432846 0.0024999999999999996 0.00096452834949732017 0.00075488614744923053 0.010192136927583187 202.61160570654249 -2.5579692335002151e-05 
-0.00093395320829088731 -0.00093395320829088731 0.0000000000000000 0.0000000000000000 0.0000000000000000 0.010000000000000002 202.48082241069415 0.0000000000000000 
-0.00093376566973432835 -0.0012021766206546270 0.0012499999999999998 0.00063582780444092104 0.00082538780207162398 0.011793868107106364 202.54659807038234 2.2335092407385474e-05 
-0.00066572979592714764 -0.00093414074684744605 0.0012499999999999998 0.00043211967751117321 0.00060678211354900976 0.011678202285706665 202.54546435149317 2.6038102329280443e-05 
-0.00093414074684744616 -0.00066572979592714764 0.0012499999999999998 0.00060678211355892446 0.00043211967749617089 0.011678202285710888 202.54546435149325 2.6038102329437611e-05 
-0.0012021766206546270 -0.00093376566973432835 0.0012499999999999998 0.00082538780207445375 0.00063582780443006222 0.011793868107108727 202.54659807038240 2.2335092407395177e-05 
-0.00093395320829088731 -0.00093395320829088731 0.0024999999999999996 0.00077479932177183786 0.00077479932178066814 0.010167530146629430 202.61124001118139 -2.7338554291278002e-05 
-0.00093395320829088731 -0.00093395320829088731 0.0012499999999999998 0.00061901917626282156 0.00061901917625415868 0.011726971737293109 202.54603121093777 2.8703900962308461e-05 
0.0000000000000000 -0.0012298938036811942 0.0000000000000000 0.0000000000000000 0.0000000000000000 0.010000000000000000 202.47960973223999 0.0000000000000000 
0.0000000000000000 -0.00062164896728019912 0.0000000000000000 0.0000000000000000 0.0000000000000000 0.010000000000000000 202.47819813334439 0.0000000000000000 
0.0000000000000000 -0.0012298938036811942 0.0024999999999999996 -2.5142517594558278e-15 0.0010211597513342262 0.010154685058821790 202.61106600202035 -2.0231770737631367e-05 
0.0000000000000000 -0.00062164896728019912 0.0024999999999999996 -3.0641507305529203e-15 0.00054089188919845699 0.010074689048579584 202.61018928773660 2.9545336237396479e-05 
-0.00034597744546699838 -0.0012293352982278940 0.0000000000000000 0.0000000000000000 0.0000000000000000 0.010000000000000002 202.48022687353784 0.0000000000000000 
0.0000000000000000 -0.00092577138548069666 0.0000000000000000 0.0000000000000000 0.0000000000000000 0.010000000000000002 202.47890393279221 0.0000000000000000 
-0.00031975235046014926 -0.00063057683410024882 0.0000000000000000 0.0000000000000000 0.0000000000000000 0.0099999999999999985 202.47873144642034 0.0000000000000000 
0.0000000000000000 -0.0012298938036811942 0.0012499999999999998 -1.6021132572819915e-15 0.00081516421488119146 0.011701034335290012 202.54533786713017 2.1483002512662080e-05 
0.0000000000000000 -0.00062164896728019912 0.0012499999999999998 -7.9259574990099271e-15 0.00038668041429574298 0.011573052499337115 202.54419371054050 -2.6438966760712876e-05 
-0.00034597744546699838 -0.0012293352982278940 0.0024999999999999996 0.00028802449057566988 0.0010162499774977731 0.010161544938346480 202.61119626139691 -2.2495545689262857e-05 
0.0000000000000000 -0.00092577138548069666 0.0024999999999999996 -1.1865237109752525e-15 0.00079372298063392732 0.010111909514068387 202.61062764487846 -2.7312043455443582e-06 
-0.00031975235046014926 -0.00063057683410024882 0.0024999999999999996 0.00027620647624590575 0.00054698963943736981 0.010084216453668698 202.61030569930188 1.9169770486964458e-05 
-0.00033286489796357382 -0.00092995606616407141 0.0000000000000000 0.0000000000000000 0.0000000000000000 0.0099999999999999985 202.47947915997912 0.0000000000000000 
-0.00034597744546699838 -0.0012293352982278940 0.0012499999999999998 0.00023005318236948686 0.00081952556627626512 0.011715270389986782 202.54571156746738 2.3195631835619372e-05 
0.0000000000000000 -0.00092577138548069677 0.0012499999999999998 6.8553986924229275e-15 0.00058840190041260820 0.011625172803392403 202.54476578883532 8.5691348162846928e-06 
-0.00031975235046014926 -0.00063057683410024882 0.0012499999999999998 0.00020230714689334348 0.00039440978100429571 0.011586351771179027 202.54451857286111 -1.4040411251270720e-05 
-0.00033286489796357382 -0.00092995606616407141 0.0024999999999999996 0.00028345283972661985 0.00079435339070836055 0.010120628552300594 202.61075098034939 -8.8733916852251251e-06 
-0.00033286489796357382 -0.00092995606616407141 0.0012499999999999998 0.00021511921039871817 0.00059455087563071031 0.011639268832083594 202.54511507016426 1.4900226039872005e-05 
-0.00062164896728019912 0.0000000000000000 0.0000000000000000 0.0000000000000000 0.0000000000000000 0.010000000000000000 202.47819813334453 0.0000000000000000 
-0.0012298938036811942 0.0000000000000000 0.0000000000000000 0.0000000000000000 0.0000000000000000 0.010000000000000000 202.47960973224005 0.0000000000000000 
-0.00062164896728019912 0.0000000000000000 0.0024999999999999996 0.00054089188920137968 5.5062570743127667e-15 0.010074689048580840 202.61018928773655 2.9545336236764704e-05 
-0.0012298938036811942 0.0000000000000000 0.0024999999999999996 0.0010211597513319895 4.3797651724112305e-15 0.010154685058824569 202.61106600201998 -2.0231770738495097e-05 
-0.00063057683410024882 -0.00031975235046014926 0.0000000000000000 0.0000000000000000 0.0000000000000000 0.010000000000000002 202.47873144642040 0.0000000000000000 
-0.00092577138548069666 0.0000000000000000 0.0000000000000000 0.0000000000000000 0.0000000000000000 0.010000000000000002 202.47890393279229 0.0000000000000000 
-0.0012293352982278940 -0.00034597744546699838 0.0000000000000000 0.0000000000000000 0.0000000000000000 0.010000000000000000 202.48022687353819 0.0000000000000000 
-0.00062164896728019912 0.0000000000000000 0.0012499999999999998 0.00038668041431365731 -9.9026012554541269e-15 0.011573052499337143 202.54419371054053 -2.6438966759384017e-05 
-0.0012298938036811942 0.0000000000000000 0.0012499999999999998 0.00081516421489534908 -7.9338142982126639e-15 0.011701034335294487 202.54533786713003 2.1483002513333821e-05 
-0.00063057683410024882 -0.00031975235046014926 0.0024999999999999996 0.00054698963945493291 0.00027620647625389876 0.010084216453668828 202.61030569930182 1.9169770486509869e-05 
-0.00092577138548069666 0.0000000000000000 0.0024999999999999996 0.00079372298063528246 1.1437844837657408e-14 0.010111909514072759 202.61062764487826 -2.7312043466000823e-06 
-0.0012293352982278940 -0.00034597744546699838 0.0024999999999999996 0.0010162499774955677 0.00028802449059103335 0.010161544938351053 202.61119626139663 -2.2495545689904010e-05 
-0.00092995606616407141 -0.00033286489796357382 0.0000000000000000 0.0000000000000000 0.0000000000000000 0.010000000000000000 202.47947915997932 0.0000000000000000 
-0.00063057683410024882 -0.00031975235046014926 0.0012499999999999998 0.00039440978101343695 0.00020230714688471594 0.011586351771180975 202.54451857286111 -1.4040411250629550e-05 
-0.00092577138548069666 0.0000000000000000 0.0012499999999999998 0.00058840190043191025 -1.7044891739718167e-14 0.011625172803394193 202.54476578883526 8.5691348173942737e-06 
-0.0012293352982278940 -0.00034597744546699838 0.0012499999999999998 0.00081952556629099151 0.00023005318236314724 0.011715270389992946 202.54571156746744 2.3195631836011328e-05 
-0.00092995606616407141 -0.00033286489796357382 0.0024999999999999996 0.00079435339070971049 0.00028345283973644039 0.010120628552297842 202.61075098034925 -8.8733916859950780e-06 
-0.00092995606616407141 -0.00033286489796357382 0.0012499999999999998 0.00059455087564416927 0.00021511921038829188 0.011639268832088235 202.54511507016429 1.4900226040509531e-05 
0.0000000000000000 0.0000000000000000 0.0000000000000000 0.0000000000000000 0.0000000000000000 0.010000000000000000 202.47727491936743 0.0000000000000000 
0.0000000000000000 0.0000000000000000 0.0024999999999999996 7.1690712462398796e-15 2.0789882355949634e-15 0.010040872744554888 202.60998706124428 7.4951293312201914e-05 
0.0000000000000000 -0.00031082448364009956 0.0000000000000000 0.0000000000000000 0.0000000000000000 0.010000000000000004 202.47773652635590 0.0000000000000000 
-0.00031082448364009956 0.0000000000000000 0.0000000000000000 0.0000000000000000 0.0000000000000000 0.010000000000000002 202.47773652635598 0.0000000000000000 
0.0000000000000000 0.0000000000000000 0.0012499999999999998 6.0628261020920740e-15 -7.8904769290343942e-15 0.011529457269111257 202.54363099030587 -8.4272839241686558e-05 
0.0000000000000000 -0.00031082448364009956 0.0024999999999999996 3.3626361325987887e-15 0.00027140767777728166 0.010049736356890821 202.61008817449044 6.1719203637128627e-05 
-0.00031082448364009956 0.0000000000000000 0.0024999999999999996 0.00027140767778097060 7.8562913847693452e-15 0.010049736356897080 202.61008817449039 6.1719203636980633e-05 
-0.00031528841705012441 -0.00031528841705012441 0.0000000000000000 0.0000000000000000 0.0000000000000000 0.010000000000000005 202.47823398638818 0.0000000000000000 
0.0000000000000000 -0.00031082448364009956 0.0012499999999999998 6.0145697418430515e-15 0.00019286250700179477 0.011540675927961541 202.54391235042317 -6.6692775437625370e-05 
-0.00031082448364009956 0.0000000000000000 0.0012499999999999998 0.00019286250701581765 -3.8723348753175602e-15 0.011540675927960483 202.54391235042320 -6.6692775436858081e-05 
-0.00031528841705012441 -0.00031528841705012441 0.0024999999999999996 0.00027461240701884428 0.00027461240702139806 0.010058921029038692 202.61019693689613 4.9005010695637968e-05 
-0.00031528841705012441 -0.00031528841705012441 0.0012499999999999998 0.00019668278504258579 0.00019668278503581039 0.011552596556945339 202.54421546164215 -5.0221939894076169e-05 
0.00069195489093399677 -0.0012287767927745938 0.0000000000000000 0.0000000000000000 0.0000000000000000 0.010000000000000000 202.48084401483587 0.0000000000000000 
0.00063950470092029852 -0.00063950470092029863 0.0000000000000000 0.0000000000000000 0.0000000000000000 0.010000000000000000 202.47926475949626 0.0000000000000000 
0.00069195489093399677 -0.0012287767927745938 0.0024999999999999996 -0.00056813013468111253 0.0010010450270966219 0.010179021706546946 202.61132652077347 -2.5907679897448970e-05 
0.00063950470092029852 -0.00063950470092029863 0.0024999999999999996 -0.00054929252470349566 0.00054929252470092371 0.010108798521370843 202.61042211086723 -2.9737050626114544e-06 
0.00034597744546699838 -0.0012293352982278940 0.0000000000000000 0.0000000000000000 0.0000000000000000 0.0099999999999999950 202.48022687353793 0.0000000000000000 
0.00066572979592714764 -0.00093414074684744627 0.0000000000000000 0.0000000000000000 0.0000000000000000 0.0099999999999999950 202.48005438716606 0.0000000000000000 
0.00031975235046014926 -0.00063057683410024882 0.0000000000000000 0.0000000000000000 0.0000000000000000 0.010000000000000007 202.47873144642034 0.0000000000000000 
0.00069195489093399677 -0.0012287767927745938 0.0012499999999999998 -0.00046348066043996417 0.00083130872059434396 0.011756449415868130 202.54608526780467 2.4503942025406278e-05 
0.00063950470092029852 -0.00063950470092029863 0.0012499999999999998 -0.00040581423619043261 0.00040581423617910454 0.011622335071021891 202.54484343518175 1.0349852833497724e-05 
0.00034597744546699838 -0.0012293352982278940 0.0024999999999999996 -0.00028802449058304517 0.0010162499775032575 0.010161544938348784 202.61119626139691 -2.2495545689218442e-05 
0.00066572979592714764 -0.00093414074684744627 0.0024999999999999996 -0.00056196085468902281 0.00078835116088491212 0.010143112601756319 202.61087431582035 -2.1201723731249534e-05 
0.00031975235046014926 -0.00063057683410024882 0.0024999999999999996 -0.00027620647624544882 0.00054698963943768369 0.010084216453666708 202.61030569930193 1.9169770487163659e-05 
0.00033286489796357382 -0.00092995606616407152 0.0000000000000000 0.0000000000000000 0.0000000000000000 0.0099999999999999950 202.47947915997912 0.0000000000000000 
0.00034597744546699838 -0.0012293352982278940 0.0012499999999999998 -0.00023005318237303814 0.00081952556627563748 0.011715270389984052 202.54571156746744 2.3195631835631914e-05 
0.00066572979592714764 -0.00093414074684744627 0.0012499999999999998 -0.00043211967750494550 0.00060678211354834026 0.011678202285704408 202.54546435149319 2.6038102329214432e-05 
0.00031975235046014926 -0.00063057683410024893 0.0012499999999999998 -0.00020230714689441575 0.00039440978099481426 0.011586351771177823 202.54451857286114 -1.4040411251798371e-05 
0.00033286489796357382 -0.00092995606616407152 0.0024999999999999996 -0.00028345283973368841 0.00079435339070361890 0.010120628552296515 202.61075098034942 -8.8733916850266636e-06 
0.00033286489796357382 -0.00092995606616407141 0.0012499999999999998 -0.00021511921039820632 0.00059455087563005144 0.011639268832083417 202.54511507016426 1.4900226039619098e-05 
0.0011755764485346602 -0.0011755764485346602 0.0000000000000000 0.0000000000000000 0.0000000000000000 0.010000000000000000 202.48233685360864 0.0000000000000000 
0.0012287767927745938 -0.00069195489093399677 0.0000000000000000 0.0000000000000000 0.0000000000000000 0.010000000000000000 202.48084401483578 0.0000000000000000 
0.0011755764485346602 -0.0011755764485346602 0.0024999999999999996 -0.00092455817513300848 0.00092455817513272020 0.010204549527766511 202.61188489231156 -2.1046093221303667e-05 
0.0012287767927745938 -0.00069195489093399677 0.0024999999999999996 -0.0010010450270940714 0.00056813013468144115 0.010179021706546606 202.61132652077345 -2.5907679897695436e-05 
0.00093376566973432846 -0.0012021766206546270 0.0000000000000000 0.0000000000000000 0.0000000000000000 0.010000000000000009 202.48159043422226 0.0000000000000000 
0.0012021766206546270 -0.00093376566973432846 0.0000000000000000 0.0000000000000000 0.0000000000000000 0.0099999999999999985 202.48159043422220 0.0000000000000000 
0.00093414074684744616 -0.00066572979592714764 0.0000000000000000 0.0000000000000000 0.0000000000000000 0.010000000000000005 202.48005438716604 0.0000000000000000 
0.0011755764485346602 -0.0011755764485346602 0.0012499999999999998 -0.00081976725765607952 0.00081976725765252009 0.011846073578544145 202.54711087296010 1.5970186814681456e-05 
0.0012287767927745938 -0.00069195489093399677 0.0012499999999999998 -0.00083130872059867535 0.00046348066043798555 0.011756449415867488 202.54608526780461 2.4503942025450073e-05 
0.00093376566973432846 -0.0012021766206546270 0.0024999999999999996 -0.00075488614744683010 0.00096452834950443676 0.010192136927581225 202.61160570654252 -2.5579692335036147e-05 
0.0012021766206546270 -0.00093376566973432846 0.0024999999999999996 -0.00096452834951317326 0.00075488614745099171 0.010192136927583695 202.61160570654249 -2.5579692335102595e-05 
0.00093414074684744616 -0.00066572979592714764 0.0024999999999999996 -0.00078835116088591783 0.00056196085468850478 0.010143112601755678 202.61087431582035 -2.1201723731562570e-05 
0.00093395320829088731 -0.00093395320829088731 0.0000000000000000 0.0000000000000000 0.0000000000000000 0.010000000000000002 202.48082241069412 0.0000000000000000 
0.00093376566973432846 -0.0012021766206546270 0.0012499999999999998 -0.00063582780444256404 0.00082538780207072290 0.011793868107101880 202.54659807038237 2.2335092407636961e-05 
0.0012021766206546270 -0.00093376566973432835 0.0012499999999999998 -0.00082538780207787126 0.00063582780444292855 0.011793868107100822 202.54659807038234 2.2335092407552820e-05 
0.00093414074684744616 -0.00066572979592714764 0.0012499999999999998 -0.00060678211355732299 0.00043211967750600747 0.011678202285704634 202.54546435149319 2.6038102329373498e-05 
0.00093395320829088731 -0.00093395320829088731 0.0024999999999999996 -0.00077479932178274190 0.00077479932178062922 0.010167530146629643 202.61124001118142 -2.7338554291310680e-05 
0.00093395320829088731 -0.00093395320829088731 0.0012499999999999998 -0.00061901917626574761 0.00061901917626073241 0.011726971737287081 202.54603121093777 2.8703900962444495e-05 
0.00062164896728019912 0.0000000000000000 0.0000000000000000 0.0000000000000000 0.0000000000000000 0.010000000000000000 202.47819813334428 0.0000000000000000 
0.00062164896728019912 0.0000000000000000 0.0024999999999999996 -0.00054089188919542199 4.9870244490303364e-15 0.010074689048579734 202.61018928773660 2.9545336236321865e-05 
0.00063057683410024882 -0.00031975235046014932 0.0000000000000000 0.0000000000000000 0.0000000000000000 0.010000000000000000 202.47873144642028 0.0000000000000000 
0.00031082448364009956 0.0000000000000000 0.0000000000000000 0.0000000000000000 0.0000000000000000 0.010000000000000004 202.47773652635584 0.0000000000000000 
0.00062164896728019912 0.0000000000000000 0.0012499999999999998 -0.00038668041430706791 -9.6258538885539794e-15 0.011573052499337927 202.54419371054044 -2.6438966758927645e-05 
0.00063057683410024882 -0.00031975235046014932 0.0024999999999999996 -0.00054698963943522071 0.00027620647624619377 0.010084216453667463 202.61030569930193 1.9169770486567403e-05 
0.00031082448364009956 0.0000000000000000 0.0024999999999999996 -0.00027140767777258218 8.4359583721934106e-15 0.010049736356896164 202.61008817449044 6.1719203636606353e-05 
0.00031528841705012441 -0.00031528841705012441 0.0000000000000000 0.0000000000000000 0.0000000000000000 0.010000000000000002 202.47823398638812 0.0000000000000000 
0.00063057683410024882 -0.00031975235046014932 0.0012499999999999998 -0.00039440978101829336 0.00020230714688389964 0.011586351771179702 202.54451857286111 -1.4040411250891319e-05 
0.00031082448364009956 0.0000000000000000 0.0012499999999999998 -0.00019286250700420527 -3.4886311511440848e-15 0.011540675927961926 202.54391235042314 -6.6692775436567026e-05 
0.00031528841705012441 -0.00031528841705012441 0.0024999999999999996 -0.00027461240701013310 0.00027461240701917030 0.010058921029035474 202.61019693689619 4.9005010695653255e-05 
0.00031528841705012441 -0.00031528841705012446 0.0012499999999999998 -0.00019668278504342284 0.00019668278503263368 0.011552596556946510 202.54421546164215 -5.0221939894392241e-05 
0.0012298938036811942 0.0000000000000000 0.0000000000000000 0.0000000000000000 0.0000000000000000 0.010000000000000000 202.47960973223991 0.0000000000000000 
0.0012298938036811942 0.0000000000000000 0.0024999999999999996 -0.0010211597513271491 2.8141286732003591e-15 0.010154685058823816 202.61106600202038 -2.0231770738632628e-05 
0.0012293352982278940 -0.00034597744546699838 0.0000000000000000 0.0000000000000000 0.0000000000000000 0.010000000000000002 202.48022687353784 0.0000000000000000 
0.00092577138548069666 0.0000000000000000 0.0000000000000000 0.0000000000000000 0.0000000000000000 0.0099999999999999985 202.47890393279209 0.0000000000000000 
0.0012298938036811942 0.0000000000000000 0.0012499999999999998 -0.00081516421488291436 -3.3442990377758604e-15 0.011701034335291080 202.54533786713014 2.1483002513567544e-05 
0.0012293352982278940 -0.00034597744546699838 0.0024999999999999996 -0.0010162499775042363 0.00028802449058119541 0.010161544938348911 202.61119626139691 -2.2495545689858369e-05 
0.00092577138548069666 0.0000000000000000 0.0024999999999999996 -0.00079372298063162556 6.5006807139464325e-15 0.010111909514072133 202.61062764487849 -2.7312043468824081e-06 
0.00092995606616407141 -0.00033286489796357382 0.0000000000000000 0.0000000000000000 0.0000000000000000 0.0099999999999999985 202.47947915997906 0.0000000000000000 
0.0012293352982278940 -0.00034597744546699838 0.0012499999999999998 -0.00081952556628077388 0.00023005318236951527 0.011715270389984898 202.54571156746738 2.3195631836128482e-05 
0.00092577138548069666 0.0000000000000000 0.0012499999999999998 -0.00058840190042396424 -1.0949618542324155e-14 0.011625172803393280 202.54476578883529 8.5691348177919337e-06 
0.00092995606616407141 -0.00033286489796357382 0.0024999999999999996 -0.00079435339070853565 0.00028345283972866579 0.010120628552294713 202.61075098034942 -8.8733916859279829e-06 
0.00092995606616407141 -0.00033286489796357382 0.0012499999999999998 -0.00059455087563922693 0.00021511921039537378 0.011639268832085789 202.54511507016426 1.4900226040448786e-05 
-0.00063950470092029863 0.00063950470092029852 0.0000000000000000 0.0000000000000000 0.0000000000000000 0.010000000000000000 202.47926475949606 0.0000000000000000 
-0.0012287767927745938 0.00069195489093399677 0.0000000000000000 0.0000000000000000 0.0000000000000000 0.010000000000000000 202.48084401483595 0.0000000000000000 
-0.00063950470092029863 0.00063950470092029852 0.0024999999999999996 0.00054929252470768447 -0.00054929252469711350 0.010108798521367739 202.61042211086720 -2.9737050628820569e-06 
-0.0012287767927745938 0.00069195489093399677 0.0024999999999999996 0.0010010450270950232 -0.00056813013467469297 0.010179021706545778 202.61132652077350 -2.5907679897902194e-05 
-0.00063057683410024882 0.00031975235046014926 0.0000000000000000 0.0000000000000000 0.0000000000000000 0.010000000000000005 202.47873144642028 0.0000000000000000 
-0.00093414074684744627 0.00066572979592714764 0.0000000000000000 0.0000000000000000 0.0000000000000000 0.010000000000000000 202.48005438716601 0.0000000000000000 
-0.0012293352982278940 0.00034597744546699838 0.0000000000000000 0.0000000000000000 0.0000000000000000 0.0099999999999999898 202.48022687353802 0.0000000000000000 
-0.00063950470092029863 0.00063950470092029852 0.0012499999999999998 0.00040581423619238157 -0.00040581423618767451 0.011622335071019296 202.54484343518163 1.0349852833954646e-05 
-0.0012287767927745938 0.00069195489093399677 0.0012499999999999998 0.00083130872060847264 -0.00046348066044460992 0.011756449415865303 202.54608526780473 2.4503942025628658e-05 
-0.00063057683410024882 0.00031975235046014926 0.0024999999999999996 0.00054698963944185613 -0.00027620647623626752 0.010084216453667772 202.61030569930188 1.9169770486577628e-05 
-0.00093414074684744627 0.00066572979592714764 0.0024999999999999996 0.00078835116088794746 -0.00056196085466731318 0.010143112601751370 202.61087431582035 -2.1201723731827712e-05 
-0.0012293352982278940 0.00034597744546699838 0.0024999999999999996 0.0010162499775016993 -0.00028802449056690937 0.010161544938350789 202.61119626139674 -2.2495545690014718e-05 
-0.00092995606616407141 0.00033286489796357382 0.0000000000000000 0.0000000000000000 0.0000000000000000 0.010000000000000002 202.47947915997915 0.0000000000000000 
-0.00063057683410024893 0.00031975235046014926 0.0012499999999999998 0.00039440978102182433 -0.00020230714689926135 0.011586351771175942 202.54451857286108 -1.4040411250534443e-05 
-0.00093414074684744627 0.00066572979592714764 0.0012499999999999998 0.00060678211356312477 -0.00043211967751069616 0.011678202285701659 202.54546435149319 2.6038102329590429e-05 
-0.0012293352982278940 0.00034597744546699838 0.0012499999999999998 0.00081952556630320223 -0.00023005318238422974 0.011715270389985377 202.54571156746738 2.3195631836167978e-05 
-0.00092995606616407141 0.00033286489796357382 0.0024999999999999996 0.00079435339071143567 -0.00028345283972155413 0.010120628552297161 202.61075098034928 -8.8733916860398048e-06 
-0.00092995606616407141 0.00033286489796357382 0.0012499999999999998 0.00059455087565191838 -0.00021511921040676859 0.011639268832080815 202.54511507016423 1.4900226040579132e-05 
0.0000000000000000 0.00062164896728019912 0.0000000000000000 0.0000000000000000 0.0000000000000000 0.010000000000000000 202.47819813334453 0.0000000000000000 
0.0000000000000000 0.00062164896728019912 0.0024999999999999996 6.3541536892481582e-15 -0.00054089188918376020 0.010074689048578335 202.61018928773652 2.9545336236722515e-05 
0.0000000000000000 0.00031082448364009956 0.0000000000000000 0.0000000000000000 0.0000000000000000 0.010000000000000002 202.47773652635598 0.0000000000000000 
-0.00031975235046014932 0.00063057683410024882 0.0000000000000000 0.0000000000000000 0.0000000000000000 0.010000000000000000 202.47873144642028 0.0000000000000000 
0.0000000000000000 0.00062164896728019912 0.0012499999999999998 3.0448719796380092e-15 -0.00038668041431001715 0.011573052499336982 202.54419371054053 -2.6438966759377464e-05 
0.0000000000000000 0.00031082448364009956 0.0024999999999999996 8.7031055226289823e-16 -0.00027140767776622025 0.010049736356894420 202.61008817449039 6.1719203636672056e-05 
-0.00031975235046014932 0.00063057683410024882 0.0024999999999999996 0.00027620647625067966 -0.00054698963942867321 0.010084216453664667 202.61030569930188 1.9169770486762379e-05 
-0.00031528841705012441 0.00031528841705012441 0.0000000000000000 0.0000000000000000 0.0000000000000000 0.010000000000000004 202.47823398638815 0.0000000000000000 
0.0000000000000000 0.00031082448364009956 0.0012499999999999998 1.6385295099994177e-14 -0.00019286250700986191 0.011540675927961508 202.54391235042320 -6.6692775436473243e-05 
-0.00031975235046014932 0.00063057683410024882 0.0012499999999999998 0.00020230714689929103 -0.00039440978101125830 0.011586351771176848 202.54451857286108 -1.4040411250863504e-05 
-0.00031528841705012441 0.00031528841705012441 0.0024999999999999996 0.00027461240702177542 -0.00027461240700986340 0.010058921029037169 202.61019693689610 4.9005010695566790e-05 
-0.00031528841705012446 0.00031528841705012441 0.0012499999999999998 0.00019668278505097166 -0.00019668278504424895 0.011552596556943422 202.54421546164215 -5.0221939893618351e-05 
-0.00069195489093399677 0.0012287767927745938 0.0000000000000000 0.0000000000000000 0.0000000000000000 0.010000000000000000 202.48084401483598 0.0000000000000000 
-0.0011755764485346602 0.0011755764485346602 0.0000000000000000 0.0000000000000000 0.0000000000000000 0.010000000000000000 202.48233685360819 0.0000000000000000 
-0.00069195489093399677 0.0012287767927745938 0.0024999999999999996 0.00056813013468227491 -0.0010010450270917788 0.010179021706542854 202.61132652077339 -2.5907679897512996e-05 
-0.0011755764485346602 0.0011755764485346602 0.0024999999999999996 0.00092455817514362510 -0.00092455817512920597 0.010204549527763111 202.61188489231174 -2.1046093221377857e-05 
-0.00066572979592714764 0.00093414074684744616 0.0000000000000000 0.0000000000000000 0.0000000000000000 0.010000000000000004 202.48005438716604 0.0000000000000000 
-0.00093376566973432846 0.0012021766206546270 0.0000000000000000 0.0000000000000000 0.0000000000000000 0.0099999999999999985 202.48159043422208 0.0000000000000000 
-0.0012021766206546270 0.00093376566973432846 0.0000000000000000 0.0000000000000000 0.0000000000000000 0.010000000000000007 202.48159043422208 0.0000000000000000 