# For a description of the Tecplot format see the Tecplot User's guide.
#
Variables=x,y,z,u,v,w,p,T
Zone f=fepoint, n=16513, e=15360, et=brick, c=black
-0.00117558 -0.00117558 0.00000 0.0000000000000000 0.0000000000000000 0.010000000000000000 202.93082086482673 0.0000000000000000 
-0.00069195489093399677 -0.0012287767927745938 0.0000000000000000 0.0000000000000000 0.0000000000000000 0.010000000000000000 202.92935931826551 0.0000000000000000 
-0.00063950470092029852 -0.00063950470092029852 0.0000000000000000 0.0000000000000000 0.0000000000000000 0.010000000000000000 202.92756806993495 0.0000000000000000 
-0.0012287767927745938 -0.00069195489093399677 0.0000000000000000 0.0000000000000000 0.0000000000000000 0.010000000000000000 202.92935931826497 0.0000000000000000 
-0.0011755764485346602 -0.0011755764485346602 0.0024999999999999996 0.00065408344968193564 0.00065408344968432739 0.013994741540788641 202.76700618507840 2.5183327714827009e-05 
-0.00069195489093399677 -0.0012287767927745938 0.0024999999999999996 0.00037183881637623423 0.00065520680109828837 0.013852311825961697 202.76670237949753 2.2392437707123383e-05 
-0.00063950470092029852 -0.00063950470092029852 0.0024999999999999996 0.00031811898255575854 0.00031811898253824580 0.013635995345203916 202.76617362455184 -2.8964990872723982e-05 
-0.0012287767927745938 -0.00069195489093399677 0.0024999999999999996 0.00065520680108813569 0.00037183881636825223 0.013852311825959383 202.76670237949793 2.2392437707371862e-05 
-0.00093376566973432846 -0.0012021766206546270 0.0000000000000000 0.0000000000000000 0.0000000000000000 0.0099999999999999967 202.93009009154611 0.0000000000000000 
-0.00066572979592714764 -0.00093414074684744616 0.0000000000000000 0.0000000000000000 0.0000000000000000 0.010000000000000000 202.92846369410023 0.0000000000000000 
-0.00093414074684744616 -0.00066572979592714764 0.0000000000000000 0.0000000000000000 0.0000000000000000 0.010000000000000004 202.92846369409995 0.0000000000000000 
-0.0012021766206546270 -0.00093376566973432846 0.0000000000000000 0.0000000000000000 0.0000000000000000 0.010000000000000000 202.93009009154585 0.0000000000000000 
-0.0011755764485346602 -0.0011755764485346602 0.0012499999999999998 0.00033308806856242640 0.00033308806857183429 0.0098499639159443236 202.84891352495254 3.1483394333601908e-06 
-0.00069195489093399677 -0.0012287767927745938 0.0012499999999999998 0.00017812933065474045 0.00032573789966715993 0.0097895900741151766 202.84803084888154 -9.1784020294169286e-07 
-0.00063950470092029852 -0.00063950470092029852 0.0012499999999999998 0.00014586142468979600 0.00014586142466431170 0.0097126091570442687 202.84687084724339 0.00010228004426985825 
-0.0012287767927745938 -0.00069195489093399677 0.0012499999999999998 0.00032573789967053706 0.00017812933066560478 0.0097895900741084198 202.84803084888145 -9.1784020335123085e-07 
-0.00093376566973432846 -0.0012021766206546270 0.0024999999999999996 0.00051032167423550965 0.00065290421117501242 0.013913078949207510 202.76685428228797 2.2263368325018217e-05 
-0.00066572979592714764 -0.00093414074684744616 0.0024999999999999996 0.00034299991840847056 0.00048081866909763411 0.013727634249044222 202.76643800202470 -9.6486915209136701e-06 
-0.00093414074684744616 -0.00066572979592714764 0.0024999999999999996 0.00048081866910546124 0.00034299991839695947 0.013727634249045981 202.76643800202487 -9.6486915207410939e-06 
-0.0012021766206546270 -0.00093376566973432846 0.0024999999999999996 0.00065290421116240608 0.00051032167423492993 0.013913078949204166 202.76685428228814 2.2263368325106245e-05 
-0.00093395320829088731 -0.00093395320829088731 0.0000000000000000 0.0000000000000000 0.0000000000000000 0.010000000000000002 202.92927689282305 0.0000000000000000 
-0.00093376566973432835 -0.0012021766206546270 0.0012499999999999998 0.00024991223406629860 0.00032928433951568423 0.0098138824668882567 202.84847218691704 3.7534282088743576e-06 
-0.00066572979592714764 -0.00093414074684744605 0.0012499999999999998 0.00015951713988725231 0.00022479434422705626 0.0097426508316911572 202.84745084806246 5.8443368856565648e-05 
-0.00093414074684744616 -0.00066572979592714764 0.0012499999999999998 0.00022479434423647125 0.00015951713988938959 0.0097426508316870771 202.84745084806241 5.8443368856074485e-05 
-0.0012021766206546270 -0.00093376566973432835 0.0012499999999999998 0.00032928433950628555 0.00024991223407857025 0.0098138824668863017 202.84847218691698 3.7534282087464675e-06 
-0.00093395320829088731 -0.00093395320829088731 0.0024999999999999996 0.00049415611128932556 0.00049415611128803753 0.013807227639925769 202.76664614215642 3.1830517997351948e-06 
-0.00093395320829088731 -0.00093395320829088731 0.0012499999999999998 0.00023517811994293962 0.00023517811994389082 0.0097712339481334422 202.84796151748972 3.4681737481069243e-05 
0.0000000000000000 -0.0012298938036811942 0.0000000000000000 0.0000000000000000 0.0000000000000000 0.010000000000000000 202.92817161375075 0.0000000000000000 
0.0000000000000000 -0.00062164896728019912 0.0000000000000000 0.0000000000000000 0.0000000000000000 0.010000000000000000 202.92640410847562 0.0000000000000000 
0.0000000000000000 -0.0012298938036811942 0.0024999999999999996 -7.9565541981619150e-15 0.00063657637570617984 0.013763814547991481 202.76650911386429 2.9119835275402959e-05 
0.0000000000000000 -0.00062164896728019912 0.0024999999999999996 -3.5437086790122456e-15 0.00029916798404478736 0.013558004195450720 202.76592842425623 -2.6332827023145115e-05 
-0.00034597744546699838 -0.0012293352982278940 0.0000000000000000 0.0000000000000000 0.0000000000000000 0.010000000000000002 202.92876546600814 0.0000000000000000 
0.0000000000000000 -0.00092577138548069666 0.0000000000000000 0.0000000000000000 0.0000000000000000 0.010000000000000002 202.92728786111320 0.0000000000000000 
-0.00031975235046014926 -0.00063057683410024882 0.0000000000000000 0.0000000000000000 0.0000000000000000 0.0099999999999999985 202.92698608920529 0.0000000000000000 
0.0000000000000000 -0.0012298938036811942 0.0012499999999999998 9.8578600941628178e-15 0.00031146000788600403 0.0097557211988134503 202.84734036380752 -3.3503098710231118e-05 
0.0000000000000000 -0.00062164896728019912 0.0012499999999999998 7.8134025488146227e-15 0.00013604936486515598 0.0096879418590879243 202.84616626636591 6.4796312619151209e-05 
-0.00034597744546699838 -0.0012293352982278940 0.0024999999999999996 0.00018210895046109882 0.00064120148839274442 0.013786036856856152 202.76660574668091 2.5707155571287857e-05 
0.0000000000000000 -0.00092577138548069666 0.0024999999999999996 3.5694329486063088e-15 0.00046139042471126138 0.013643136173301493 202.76621876906029 -1.0499361014375843e-05 
-0.00031975235046014926 -0.00063057683410024882 0.0024999999999999996 0.00015532306036409829 0.00030617079823030914 0.013578485070789105 202.76605102440402 -2.9623933979523377e-05 
-0.00033286489796357382 -0.00092995606616407141 0.0000000000000000 0.0000000000000000 0.0000000000000000 0.0099999999999999985 202.92787577760672 0.0000000000000000 
-0.00034597744546699838 -0.0012293352982278940 0.0012499999999999998 8.7787752962061142e-05 0.00031522869817759459 0.0097642541170363251 202.84768560634456 -1.9370225376053753e-05 
0.0000000000000000 -0.00092577138548069677 0.0012499999999999998 -1.4051909686039015e-14 0.00021274139692504480 0.0097136967194558100 202.84675331508674 3.7342625035364255e-05 
-0.00031975235046014926 -0.00063057683410024882 0.0012499999999999998 7.3346431026456225e-05 0.00013953026699054191 0.0096945217930782257 202.84651855680465 8.6713419206955263e-05 
-0.00033286489796357382 -0.00092995606616407141 0.0024999999999999996 0.00016756398394091786 0.00046749283112517022 0.013665039511503860 202.76632838554247 -1.2136383660904060e-05 
-0.00033286489796357382 -0.00092995606616407141 0.0012499999999999998 7.9537906646285603e-05 0.00021623442443299726 0.0097212844147992316 202.84710208157458 5.0536755189722333e-05 
-0.00062164896728019912 0.0000000000000000 0.0000000000000000 0.0000000000000000 0.0000000000000000 0.010000000000000000 202.92640410847554 0.0000000000000000 
-0.0012298938036811942 0.0000000000000000 0.0000000000000000 0.0000000000000000 0.0000000000000000 0.010000000000000000 202.92817161375083 0.0000000000000000 
-0.00062164896728019912 0.0000000000000000 0.0024999999999999996 0.00029916798404411061 -1.9705455693915610e-14 0.013558004195453940 202.76592842425632 -2.6332827022300470e-05 
-0.0012298938036811942 0.0000000000000000 0.0024999999999999996 0.00063657637571747300 -1.4970416681713560e-14 0.013763814547992413 202.76650911386449 2.9119835276154260e-05 
-0.00063057683410024882 -0.00031975235046014926 0.0000000000000000 0.0000000000000000 0.0000000000000000 0.010000000000000002 202.92698608920523 0.0000000000000000 
-0.00092577138548069666 0.0000000000000000 0.0000000000000000 0.0000000000000000 0.0000000000000000 0.010000000000000002 202.92728786111320 0.0000000000000000 
-0.0012293352982278940 -0.00034597744546699838 0.0000000000000000 0.0000000000000000 0.0000000000000000 0.010000000000000000 202.92876546600792 0.0000000000000000 
-0.00062164896728019912 0.0000000000000000 0.0012499999999999998 0.00013604936487177712 -9.8178209474995623e-15 0.0096879418590842190 202.84616626636591 6.4796312617960430e-05 
-0.0012298938036811942 0.0000000000000000 0.0012499999999999998 0.00031146000789527119 -2.9795033838984683e-15 0.0097557211988068965 202.84734036380766 -3.3503098711118660e-05 
-0.00063057683410024882 -0.00031975235046014926 0.0024999999999999996 0.00030617079823085037 0.00015532306034491254 0.013578485070790382 202.76605102440408 -2.9623933979067006e-05 
-0.00092577138548069666 0.0000000000000000 0.0024999999999999996 0.00046139042471840980 -3.2318383856765985e-14 0.013643136173299882 202.76621876906040 -1.0499361013444012e-05 
-0.0012293352982278940 -0.00034597744546699838 0.0024999999999999996 0.00064120148840072653 0.00018210895044800629 0.013786036856859101 202.76660574668119 2.5707155571816104e-05 
-0.00092995606616407141 -0.00033286489796357382 0.0000000000000000 0.0000000000000000 0.0000000000000000 0.010000000000000000 202.92787577760654 0.0000000000000000 
-0.00063057683410024882 -0.00031975235046014926 0.0012499999999999998 0.00013953026701121006 7.3346431015077672e-05 0.0096945217930748361 202.84651855680465 8.6713419206222979e-05 
-0.00092577138548069666 0.0000000000000000 0.0012499999999999998 0.00021274139693021939 4.1980457587604948e-15 0.0097136967194528297 202.84675331508680 3.7342625033913226e-05 
-0.0012293352982278940 -0.00034597744546699838 0.0012499999999999998 0.00031522869819738101 8.7787752961542703e-05 0.0097642541170263782 202.84768560634456 -1.9370225376973787e-05 
-0.00092995606616407141 -0.00033286489796357382 0.0024999999999999996 0.00046749283113375352 0.00016756398392613284 0.013665039511513386 202.76632838554264 -1.2136383660380626e-05 
-0.00092995606616407141 -0.00033286489796357382 0.0012499999999999998 0.00021623442445175924 7.9537906643093657e-05 0.0097212844147914913 202.84710208157460 5.0536755188521207e-05 
0.0000000000000000 0.0000000000000000 0.0000000000000000 0.0000000000000000 0.0000000000000000 0.010000000000000000 202.92541104645576 0.0000000000000000 
0.0000000000000000 0.0000000000000000 0.0024999999999999996 -1.4305217910970746e-14 -1.0121773961509739e-14 0.013489780465084736 202.76570392971840 -1.3852382449555797e-05 
0.0000000000000000 -0.00031082448364009956 0.0000000000000000 0.0000000000000000 0.0000000000000000 0.010000000000000004 202.92590757746569 0.0000000000000000 
-0.00031082448364009956 0.0000000000000000 0.0000000000000000 0.0000000000000000 0.0000000000000000 0.010000000000000002 202.92590757746564 0.0000000000000000 
0.0000000000000000 0.0000000000000000 0.0012499999999999998 -1.2291472619901527e-14 -8.8407527392924993e-15 0.0096678763384818230 202.84555748808708 -3.3173883192925331e-05 
0.0000000000000000 -0.00031082448364009956 0.0024999999999999996 -2.3119288061181826e-14 0.00014609968994182577 0.013506794556644448 202.76581617698730 -2.0043450080024412e-05 
-0.00031082448364009956 0.0000000000000000 0.0024999999999999996 0.00014609968994183103 -1.7834743114158510e-14 0.013506794556642034 202.76581617698736 -2.0043450079565452e-05 
-0.00031528841705012441 -0.00031528841705012441 0.0000000000000000 0.0000000000000000 0.0000000000000000 0.010000000000000005 202.92644683333549 0.0000000000000000 
0.0000000000000000 -0.00031082448364009956 0.0012499999999999998 -7.7926222025474831e-15 6.8368150768023940e-05 0.0096730057906952247 202.84586187722650 8.5352752995384204e-06 
-0.00031082448364009956 0.0000000000000000 0.0012499999999999998 6.8368150773711584e-05 -2.4468374807110481e-14 0.0096730057906939341 202.84586187722647 8.5352752991231947e-06 
-0.00031528841705012441 -0.00031528841705012441 0.0024999999999999996 0.00014948549729952752 0.00014948549728527419 0.013524923200002242 202.76593360069569 -2.5592672186017234e-05 
-0.00031528841705012441 -0.00031528841705012441 0.0012499999999999998 7.0204661907824267e-05 7.0204661892094662e-05 0.0096785876701208067 202.84619021701562 4.4866623736278109e-05 
0.00069195489093399677 -0.0012287767927745938 0.0000000000000000 0.0000000000000000 0.0000000000000000 0.010000000000000000 202.92935931826534 0.0000000000000000 
0.00063950470092029852 -0.00063950470092029863 0.0000000000000000 0.0000000000000000 0.0000000000000000 0.010000000000000000 202.92756806993506 0.0000000000000000 
0.00069195489093399677 -0.0012287767927745938 0.0024999999999999996 -0.00037183881637253840 0.00065520680107333904 0.013852311825949466 202.76670237949762 2.2392437707286897e-05 
0.00063950470092029852 -0.00063950470092029863 0.0024999999999999996 -0.00031811898255379640 0.00031811898254293091 0.013635995345201277 202.76617362455173 -2.8964990873539895e-05 
0.00034597744546699838 -0.0012293352982278940 0.0000000000000000 0.0000000000000000 0.0000000000000000 0.0099999999999999950 202.92876546600803 0.0000000000000000 
0.00066572979592714764 -0.00093414074684744627 0.0000000000000000 0.0000000000000000 0.0000000000000000 0.0099999999999999950 202.92846369410020 0.0000000000000000 
0.00031975235046014926 -0.00063057683410024882 0.0000000000000000 0.0000000000000000 0.0000000000000000 0.010000000000000007 202.92698608920534 0.0000000000000000 
0.00069195489093399677 -0.0012287767927745938 0.0012499999999999998 -0.00017812933066145591 0.00032573789966953726 0.0097895900741116707 202.84803084888148 -9.1784020339176847e-07 
0.00063950470092029852 -0.00063950470092029863 0.0012499999999999998 -0.00014586142467338574 0.00014586142467237014 0.0097126091570445376 202.84687084724339 0.00010228004427126212 
0.00034597744546699838 -0.0012293352982278940 0.0024999999999999996 -0.00018210895046190555 0.00064120148837307548 0.013786036856850536 202.76660574668097 2.5707155571100689e-05 
0.00066572979592714764 -0.00093414074684744627 0.0024999999999999996 -0.00034299991840184793 0.00048081866908510258 0.013727634249039928 202.76643800202467 -9.6486915212691681e-06 
0.00031975235046014926 -0.00063057683410024882 0.0024999999999999996 -0.00015532306037564084 0.00030617079823346834 0.013578485070789098 202.76605102440396 -2.9623933980215820e-05 
0.00033286489796357382 -0.00092995606616407152 0.0000000000000000 0.0000000000000000 0.0000000000000000 0.0099999999999999950 202.92787577760669 0.0000000000000000 
0.00034597744546699838 -0.0012293352982278940 0.0012499999999999998 -8.7787752962644497e-05 0.00031522869820671290 0.0097642541170347586 202.84768560634450 -1.9370225376101810e-05 
0.00066572979592714764 -0.00093414074684744627 0.0012499999999999998 -0.00015951713989290531 0.00022479434423162517 0.0097426508316884042 202.84745084806244 5.8443368856641942e-05 
0.00031975235046014926 -0.00063057683410024893 0.0012499999999999998 -7.3346431028270041e-05 0.00013953026701600334 0.0096945217930781095 202.84651855680465 8.6713419208915080e-05 
0.00033286489796357382 -0.00092995606616407152 0.0024999999999999996 -0.00016756398393688395 0.00046749283112314287 0.013665039511509942 202.76632838554247 -1.2136383661517410e-05 
0.00033286489796357382 -0.00092995606616407141 0.0012499999999999998 -7.9537906650202446e-05 0.00021623442444725137 0.0097212844147953822 202.84710208157458 5.0536755190463494e-05 
0.0011755764485346602 -0.0011755764485346602 0.0000000000000000 0.0000000000000000 0.0000000000000000 0.010000000000000000 202.93082086482559 0.0000000000000000 
0.0012287767927745938 -0.00069195489093399677 0.0000000000000000 0.0000000000000000 0.0000000000000000 0.010000000000000000 202.92935931826511 0.0000000000000000 
0.0011755764485346602 -0.0011755764485346602 0.0024999999999999996 -0.00065408344969033994 0.00065408344967433051 0.013994741540774342 202.76700618507871 2.5183327715360372e-05 
0.0012287767927745938 -0.00069195489093399677 0.0024999999999999996 -0.00065520680110664703 0.00037183881637715976 0.013852311825953886 202.76670237949759 2.2392437707723519e-05 
0.00093376566973432846 -0.0012021766206546270 0.0000000000000000 0.0000000000000000 0.0000000000000000 0.010000000000000009 202.93009009154545 0.0000000000000000 
0.0012021766206546270 -0.00093376566973432846 0.0000000000000000 0.0000000000000000 0.0000000000000000 0.0099999999999999985 202.93009009154534 0.0000000000000000 
0.00093414074684744616 -0.00066572979592714764 0.0000000000000000 0.0000000000000000 0.0000000000000000 0.010000000000000005 202.92846369410009 0.0000000000000000 
0.0011755764485346602 -0.0011755764485346602 0.0012499999999999998 -0.00033308806856870301 0.00033308806854687867 0.0098499639159408021 202.84891352495214 3.1483394328450948e-06 
0.0012287767927745938 -0.00069195489093399677 0.0012499999999999998 -0.00032573789967829133 0.00017812933064745764 0.0097895900741102569 202.84803084888136 -9.1784020406657347e-07 
0.00093376566973432846 -0.0012021766206546270 0.0024999999999999996 -0.00051032167424230467 0.00065290421115893923 0.013913078949193297 202.76685428228816 2.2263368325503401e-05 
0.0012021766206546270 -0.00093376566973432846 0.0024999999999999996 -0.00065290421117344293 0.00051032167423666910 0.013913078949191891 202.76685428228814 2.2263368325659147e-05 
0.00093414074684744616 -0.00066572979592714764 0.0024999999999999996 -0.00048081866910926478 0.00034299991839858426 0.013727634249038577 202.76643800202464 -9.6486915209184033e-06 
0.00093395320829088731 -0.00093395320829088731 0.0000000000000000 0.0000000000000000 0.0000000000000000 0.010000000000000002 202.92927689282277 0.0000000000000000 
0.00093376566973432846 -0.0012021766206546270 0.0012499999999999998 -0.00024991223407012990 0.00032928433950665678 0.0098138824668860605 202.84847218691681 3.7534282081441093e-06 
0.0012021766206546270 -0.00093376566973432835 0.0012499999999999998 -0.00032928433951578961 0.00024991223405940107 0.0098138824668857535 202.84847218691675 3.7534282079712282e-06 
0.00093414074684744616 -0.00066572979592714764 0.0012499999999999998 -0.00022479434423474182 0.00015951713988203529 0.0097426508316883938 202.84745084806238 5.8443368855969310e-05 
0.00093395320829088731 -0.00093395320829088731 0.0024999999999999996 -0.00049415611129615647 0.00049415611128162805 0.013807227639914205 202.76664614215642 3.1830517999850864e-06 
0.00093395320829088731 -0.00093395320829088731 0.0012499999999999998 -0.00023517811994189366 0.00023517811993479810 0.0097712339481320302 202.84796151748958 3.4681737480358400e-05 
0.00062164896728019912 0.0000000000000000 0.0000000000000000 0.0000000000000000 0.0000000000000000 0.010000000000000000 202.92640410847554 0.0000000000000000 
0.00062164896728019912 0.0000000000000000 0.0024999999999999996 -0.00029916798407070636 -1.1140025515739811e-14 0.013558004195452096 202.76592842425623 -2.6332827022125558e-05 
0.00063057683410024882 -0.00031975235046014932 0.0000000000000000 0.0000000000000000 0.0000000000000000 0.010000000000000000 202.92698608920529 0.0000000000000000 
0.00031082448364009956 0.0000000000000000 0.0000000000000000 0.0000000000000000 0.0000000000000000 0.010000000000000004 202.92590757746564 0.0000000000000000 
0.00062164896728019912 0.0000000000000000 0.0012499999999999998 -0.00013604936488378555 -2.3426065250767801e-15 0.0096879418590854298 202.84616626636588 6.4796312618461250e-05 
0.00063057683410024882 -0.00031975235046014932 0.0024999999999999996 -0.00030617079826854152 0.00015532306035564476 0.013578485070782947 202.76605102440396 -2.9623933979695498e-05 
0.00031082448364009956 0.0000000000000000 0.0024999999999999996 -0.00014609968996782025 -1.3300425429275786e-14 0.013506794556638292 202.76581617698730 -2.0043450079381755e-05 
0.00031528841705012441 -0.00031528841705012441 0.0000000000000000 0.0000000000000000 0.0000000000000000 0.010000000000000002 202.92644683333549 0.0000000000000000 
0.00063057683410024882 -0.00031975235046014932 0.0012499999999999998 -0.00013953026702200768 7.3346431024213526e-05 0.0096945217930766124 202.84651855680463 8.6713419208110128e-05 
0.00031082448364009956 0.0000000000000000 0.0012499999999999998 -6.8368150792663614e-05 -1.4470227127059406e-14 0.0096730057906938248 202.84586187722647 8.5352752999579033e-06 
0.00031528841705012441 -0.00031528841705012441 0.0024999999999999996 -0.00014948549732430856 0.00014948549728957655 0.013524923199999711 202.76593360069563 -2.5592672186437654e-05 
0.00031528841705012441 -0.00031528841705012446 0.0012499999999999998 -7.0204661909248909e-05 7.0204661902137098e-05 0.0096785876701209091 202.84619021701556 4.4866623738374834e-05 
0.0012298938036811942 0.0000000000000000 0.0000000000000000 0.0000000000000000 0.0000000000000000 0.010000000000000000 202.92817161375055 0.0000000000000000 
0.0012298938036811942 0.0000000000000000 0.0024999999999999996 -0.00063657637573794707 -1.0454708224769220e-14 0.013763814547994090 202.76650911386406 2.9119835276599318e-05 
0.0012293352982278940 -0.00034597744546699838 0.0000000000000000 0.0000000000000000 0.0000000000000000 0.010000000000000002 202.92876546600783 0.0000000000000000 
0.00092577138548069666 0.0000000000000000 0.0000000000000000 0.0000000000000000 0.0000000000000000 0.0099999999999999985 202.92728786111303 0.0000000000000000 
0.0012298938036811942 0.0000000000000000 0.0012499999999999998 -0.00031146000790401740 -7.7239315043502017e-15 0.0097557211988102670 202.84734036380729 -3.3503098711681936e-05 
0.0012293352982278940 -0.00034597744546699838 0.0024999999999999996 -0.00064120148840550635 0.00018210895046094633 0.013786036856853109 202.76660574668082 2.5707155571997189e-05 
0.00092577138548069666 0.0000000000000000 0.0024999999999999996 -0.00046139042473471176 -1.9592806702613248e-14 0.013643136173296655 202.76621876906015 -1.0499361013151686e-05 
0.00092995606616407141 -0.00033286489796357382 0.0000000000000000 0.0000000000000000 0.0000000000000000 0.0099999999999999985 202.92787577760657 0.0000000000000000 
0.0012293352982278940 -0.00034597744546699838 0.0012499999999999998 -0.00031522869820884016 8.7787752952233662e-05 0.0097642541170327602 202.84768560634433 -1.9370225377402799e-05 
0.00092577138548069666 0.0000000000000000 0.0012499999999999998 -0.00021274139694152394 -4.4061710641691924e-15 0.0097136967194529546 202.84675331508657 3.7342625033493206e-05 
0.00092995606616407141 -0.00033286489796357382 0.0024999999999999996 -0.00046749283114596191 0.00016756398393789134 0.013665039511509320 202.76632838554238 -1.2136383660646427e-05 
0.00092995606616407141 -0.00033286489796357382 0.0012499999999999998 -0.00021623442445689578 7.9537906640398968e-05 0.0097212844147923569 202.84710208157446 5.0536755188877807e-05 
-0.00063950470092029863 0.00063950470092029852 0.0000000000000000 0.0000000000000000 0.0000000000000000 0.010000000000000000 202.92756806993515 0.0000000000000000 
-0.0012287767927745938 0.00069195489093399677 0.0000000000000000 0.0000000000000000 0.0000000000000000 0.010000000000000000 202.92935931826517 0.0000000000000000 
-0.00063950470092029863 0.00063950470092029852 0.0024999999999999996 0.00031811898254593978 -0.00031811898257699838 0.013635995345208077 202.76617362455167 -2.8964990873374250e-05 
-0.0012287767927745938 0.00069195489093399677 0.0024999999999999996 0.00065520680108330698 -0.00037183881638035089 0.013852311825959576 202.76670237949742 2.2392437707625050e-05 
-0.00063057683410024882 0.00031975235046014926 0.0000000000000000 0.0000000000000000 0.0000000000000000 0.010000000000000005 202.92698608920534 0.0000000000000000 
-0.00093414074684744627 0.00066572979592714764 0.0000000000000000 0.0000000000000000 0.0000000000000000 0.010000000000000000 202.92846369410017 0.0000000000000000 
-0.0012293352982278940 0.00034597744546699838 0.0000000000000000 0.0000000000000000 0.0000000000000000 0.0099999999999999898 202.92876546600800 0.0000000000000000 
-0.00063950470092029863 0.00063950470092029852 0.0012499999999999998 0.00014586142468446823 -0.00014586142469224213 0.0097126091570460035 202.84687084724339 0.00010228004427114405 
-0.0012287767927745938 0.00069195489093399677 0.0012499999999999998 0.00032573789967646455 -0.00017812933066169739 0.0097895900741140369 202.84803084888131 -9.1784020367792934e-07 
-0.00063057683410024882 0.00031975235046014926 0.0024999999999999996 0.00030617079824288486 -0.00015532306039369191 0.013578485070791138 202.76605102440396 -2.9623933979462510e-05 
-0.00093414074684744627 0.00066572979592714764 0.0024999999999999996 0.00048081866909670994 -0.00034299991844556258 0.013727634249051365 202.76643800202453 -9.6486915209163941e-06 
-0.0012293352982278940 0.00034597744546699838 0.0024999999999999996 0.00064120148838724654 -0.00018210895047854155 0.013786036856858645 202.76660574668097 2.5707155571798008e-05 
-0.00092995606616407141 0.00033286489796357382 0.0000000000000000 0.0000000000000000 0.0000000000000000 0.010000000000000002 202.92787577760669 0.0000000000000000 
-0.00063057683410024893 0.00031975235046014926 0.0012499999999999998 0.00013953026699557575 -7.3346431035221552e-05 0.0096945217930768067 202.84651855680465 8.6713419207929798e-05 
-0.00093414074684744627 0.00066572979592714764 0.0012499999999999998 0.00022479434423880600 -0.00015951713989571545 0.0097426508316911537 202.84745084806235 5.8443368856154546e-05 
-0.0012293352982278940 0.00034597744546699838 0.0012499999999999998 0.00031522869820099162 -8.7787752962095565e-05 0.0097642541170316673 202.84768560634450 -1.9370225376643159e-05 
-0.00092995606616407141 0.00033286489796357382 0.0024999999999999996 0.00046749283113055404 -0.00016756398396458353 0.013665039511515209 202.76632838554247 -1.2136383660609887e-05 
-0.00092995606616407141 0.00033286489796357382 0.0012499999999999998 0.00021623442444417178 -7.9537906648209980e-05 0.0097212844147949399 202.84710208157458 5.0536755189380538e-05 
0.0000000000000000 0.00062164896728019912 0.0000000000000000 0.0000000000000000 0.0000000000000000 0.010000000000000000 202.92640410847488 0.0000000000000000 
0.0000000000000000 0.00062164896728019912 0.0024999999999999996 -9.0740572905983568e-15 -0.00029916798408413631 0.013558004195454377 202.76592842425623 -2.6332827022599544e-05 
0.0000000000000000 0.00031082448364009956 0.0000000000000000 0.0000000000000000 0.0000000000000000 0.010000000000000002 202.92590757746532 0.0000000000000000 
-0.00031975235046014932 0.00063057683410024882 0.0000000000000000 0.0000000000000000 0.0000000000000000 0.010000000000000000 202.92698608920500 0.0000000000000000 
0.0000000000000000 0.00062164896728019912 0.0012499999999999998 -1.1803226771263007e-15 -0.00013604936488792715 0.0096879418590849371 202.84616626636557 6.4796312619769801e-05 
0.0000000000000000 0.00031082448364009956 0.0024999999999999996 -1.2555517246765066e-14 -0.00014609968996840669 0.013506794556642391 202.76581617698730 -2.0043450079313609e-05 
-0.00031975235046014932 0.00063057683410024882 0.0024999999999999996 0.00015532306036042875 -0.00030617079826482417 0.013578485070790349 202.76605102440396 -2.9623933979865531e-05 
-0.00031528841705012441 0.00031528841705012441 0.0000000000000000 0.0000000000000000 0.0000000000000000 0.010000000000000004 202.92644683333532 0.0000000000000000 
0.0000000000000000 0.00031082448364009956 0.0012499999999999998 -2.0408445509559887e-14 -6.8368150795424589e-05 0.0096730057906934865 202.84586187722633 8.5352753003981368e-06 
-0.00031975235046014932 0.00063057683410024882 0.0012499999999999998 7.3346431026129121e-05 -0.00013953026703595125 0.0096945217930778059 202.84651855680448 8.6713419208919336e-05 
-0.00031528841705012441 0.00031528841705012441 0.0024999999999999996 0.00014948549729686020 -0.00014948549732286576 0.013524923200005069 202.76593360069566 -2.5592672186017332e-05 
-0.00031528841705012446 0.00031528841705012441 0.0012499999999999998 7.0204661897929011e-05 -7.0204661924708859e-05 0.0096785876701203418 202.84619021701550 4.4866623738328145e-05 
-0.00069195489093399677 0.0012287767927745938 0.0000000000000000 0.0000000000000000 0.0000000000000000 0.010000000000000000 202.92935931826551 0.0000000000000000 
-0.0011755764485346602 0.0011755764485346602 0.0000000000000000 0.0000000000000000 0.0000000000000000 0.010000000000000000 202.93082086482625 0.0000000000000000 
-0.00069195489093399677 0.0012287767927745938 0.0024999999999999996 0.00037183881637259717 -0.00065520680110523876 0.013852311825966196 202.76670237949762 2.2392437707530724e-05 
-0.0011755764485346602 0.0011755764485346602 0.0024999999999999996 0.00065408344968057724 -0.00065408344969837312 0.013994741540787649 202.76700618507832 2.5183327715459508e-05 
-0.00066572979592714764 0.00093414074684744616 0.0000000000000000 0.0000000000000000 0.0000000000000000 0.010000000000000004 202.92846369410034 0.0000000000000000 
-0.00093376566973432846 0.0012021766206546270 0.0000000000000000 0.0000000000000000 0.0000000000000000 0.0099999999999999985 202.93009009154588 0.0000000000000000 
-0.0012021766206546270 0.00093376566973432846 0.0000000000000000 0.0000000000000000 0.0000000000000000 0.010000000000000007 202.93009009154571 0.0000000000000000 