# For a description of the Tecplot format see the Tecplot User's guide.
#
Variables=x,y,z,u,v,w,p,T
Zone f=fepoint, n=16513, e=15360, et=brick, c=black
-0.00117558 -0.00117558 0.00000 0.0000000000000000 0.0000000000000000 0.010000000000000000 202.48286176228476 0.0000000000000000 
-0.00069195489093399677 -0.0012287767927745938 0.0000000000000000 0.0000000000000000 0.0000000000000000 0.010000000000000000 202.48136721626670 0.0000000000000000 
-0.00063950470092029852 -0.00063950470092029852 0.0000000000000000 0.0000000000000000 0.0000000000000000 0.010000000000000000 202.47978471758219 0.0000000000000000 
-0.0012287767927745938 -0.00069195489093399677 0.0000000000000000 0.0000000000000000 0.0000000000000000 0.010000000000000000 202.48136721626733 0.0000000000000000 
-0.0011755764485346602 -0.0011755764485346602 0.0024999999999999996 0.00092272228743767322 0.00092272228744717018 0.010206866988229963 202.61234843496118 -2.0998175265558686e-05 
-0.00069195489093399677 -0.0012287767927745938 0.0024999999999999996 0.00056692661775060386 0.00099891626089601191 0.010180981014479718 202.61178745882981 -2.5879428103698037e-05 
-0.00063950470092029852 -0.00063950470092029852 0.0024999999999999996 0.00054801803306965731 0.00054801803308723526 0.010110348840490392 202.61087976930312 -3.0410253919939915e-06 
-0.0012287767927745938 -0.00069195489093399677 0.0024999999999999996 0.00099891626088676366 0.00056692661776461446 0.010180981014482348 202.61178745882947 -2.5879428103976382e-05 
-0.00093376566973432846 -0.0012021766206546270 0.0000000000000000 0.0000000000000000 0.0000000000000000 0.0099999999999999967 202.48211448927572 0.0000000000000000 
-0.00066572979592714764 -0.00093414074684744616 0.0000000000000000 0.0000000000000000 0.0000000000000000 0.010000000000000000 202.48057596692445 0.0000000000000000 
-0.00093414074684744616 -0.00066572979592714764 0.0000000000000000 0.0000000000000000 0.0000000000000000 0.010000000000000004 202.48057596692476 0.0000000000000000 
-0.0012021766206546270 -0.00093376566973432846 0.0000000000000000 0.0000000000000000 0.0000000000000000 0.010000000000000000 202.48211448927606 0.0000000000000000 
-0.0011755764485346602 -0.0011755764485346602 0.0012499999999999998 0.00081836363675610098 0.00081836363674782429 0.011842483618205221 202.54760509862297 1.5940630780670457e-05 
-0.00069195489093399677 -0.0012287767927745938 0.0012499999999999998 0.00046266107770801066 0.00082985104730814530 0.011752939905449115 202.54657733754826 2.4453758604212835e-05 
-0.00063950470092029852 -0.00063950470092029852 0.0012499999999999998 0.00040507476825507935 0.00040507476825899728 0.011619001988563063 202.54533224344266 1.0489853797666907e-05 
-0.0012287767927745938 -0.00069195489093399677 0.0012499999999999998 0.00082985104732231994 0.00046266107770608268 0.011752939905456457 202.54657733754840 2.4453758604288620e-05 
-0.00093376566973432846 -0.0012021766206546270 0.0024999999999999996 0.00075333230525691296 0.00096253315710677996 0.010194239945840414 202.61206794689548 -2.5533731749201811e-05 
-0.00066572979592714764 -0.00093414074684744616 0.0024999999999999996 0.00056070417330519363 0.00078658880608925997 0.010144817031076902 202.61133361406647 -2.1236450276157964e-05 
-0.00093414074684744616 -0.00066572979592714764 0.0024999999999999996 0.00078658880607859337 0.00056070417332311333 0.010144817031078210 202.61133361406630 -2.1236450276429272e-05 
-0.0012021766206546270 -0.00093376566973432846 0.0024999999999999996 0.00096253315711054637 0.00075333230526080069 0.010194239945844020 202.61206794689531 -2.5533731749290109e-05 
-0.00093395320829088731 -0.00093395320829088731 0.0000000000000000 0.0000000000000000 0.0000000000000000 0.010000000000000002 202.48134522810025 0.0000000000000000 
-0.00093376566973432835 -0.0012021766206546270 0.0012499999999999998 0.00063472017801095002 0.00082395546395164741 0.011790321250086982 202.54709121808560 2.2286900706928489e-05 
-0.00066572979592714764 -0.00093414074684744605 0.0012499999999999998 0.00043134025079276367 0.00060569141148858723 0.011674787469200006 202.54595479049544 2.6101564238604820e-05 
-0.00093414074684744616 -0.00066572979592714764 0.0012499999999999998 0.00060569141149526169 0.00043134025078795187 0.011674787469204809 202.54595479049553 2.6101564238826329e-05 
-0.0012021766206546270 -0.00093376566973432835 0.0012499999999999998 0.00082395546396278206 0.00063472017800086846 0.011790321250089556 202.54709121808568 2.2286900706899181e-05 
-0.00093395320829088731 -0.00093395320829088731 0.0024999999999999996 0.00077312526802057497 0.00077312526802898534 0.010169391715483034 202.61170078048087 -2.7329241905377178e-05 
-0.00093395320829088731 -0.00093395320829088731 0.0012499999999999998 0.00061791943108326693 0.00061791943107603661 0.011723495311070796 202.54652300429058 2.8698581245314380e-05 
0.0000000000000000 -0.0012298938036811942 0.0000000000000000 0.0000000000000000 0.0000000000000000 0.010000000000000000 202.48013208512313 0.0000000000000000 
0.0000000000000000 -0.00062164896728019912 0.0000000000000000 0.0000000000000000 0.0000000000000000 0.010000000000000000 202.47871732339496 0.0000000000000000 
0.0000000000000000 -0.0012298938036811942 0.0024999999999999996 -1.6513528723633131e-15 0.0010189016333355166 0.010156457535612137 202.61152528425816 -2.0250988986342369e-05 
0.0000000000000000 -0.00062164896728019912 0.0024999999999999996 -5.6365874586041840e-15 0.00053959748466839413 0.010076129863845597 202.61064551909229 2.9537081199052123e-05 
-0.00034597744546699838 -0.0012293352982278940 0.0000000000000000 0.0000000000000000 0.0000000000000000 0.010000000000000002 202.48074965069492 0.0000000000000000 
0.0000000000000000 -0.00092577138548069666 0.0000000000000000 0.0000000000000000 0.0000000000000000 0.010000000000000002 202.47942470425903 0.0000000000000000 
-0.00031975235046014926 -0.00063057683410024882 0.0000000000000000 0.0000000000000000 0.0000000000000000 0.0099999999999999985 202.47925102048856 0.0000000000000000 
0.0000000000000000 -0.0012298938036811942 0.0012499999999999998 -3.1032353383184779e-15 0.00081371482599647987 0.011697589213534967 202.54582868469066 2.1480715645131352e-05 
0.0000000000000000 -0.00062164896728019912 0.0012499999999999998 -7.7489961071028588e-15 0.00038596974585306351 0.011569799935851286 202.54468142124364 -2.6401330146311436e-05 
-0.00034597744546699838 -0.0012293352982278940 0.0024999999999999996 0.00028739788241101058 0.0010140255592532518 0.010163361133972253 202.61165637154397 -2.2501721922875965e-05 
0.0000000000000000 -0.00092577138548069666 0.0024999999999999996 -1.8084285902887779e-15 0.00079188519848050990 0.010113470013729826 202.61108540167524 -2.7947008051540337e-06 
-0.00031975235046014926 -0.00063057683410024882 0.0024999999999999996 0.00027555071177218574 0.00054569144528237451 0.010085683427378412 202.61076264419773 1.9132209176517191e-05 
-0.00033286489796357382 -0.00092995606616407141 0.0000000000000000 0.0000000000000000 0.0000000000000000 0.0099999999999999985 202.48000033559177 0.0000000000000000 
-0.00034597744546699838 -0.0012293352982278940 0.0012499999999999998 0.00022964614407732588 0.00081807529626204227 0.011711807666928000 202.54620301111945 2.3176598377712495e-05 
0.0000000000000000 -0.00092577138548069677 0.0012499999999999998 5.7960963410522564e-15 0.00058733121689595244 0.011621834244523795 202.54525505296715 8.7106992685354364e-06 
-0.00031975235046014926 -0.00063057683410024882 0.0012499999999999998 0.00020193908356067825 0.00039368704146874661 0.011583076773820053 202.54500683234312 -1.3947258333322228e-05 
-0.00033286489796357382 -0.00092995606616407141 0.0024999999999999996 0.00028280315825101405 0.00079253117585238264 0.010122223563110865 202.61120950787083 -8.9346414577110476e-06 
-0.00033286489796357382 -0.00092995606616407141 0.0012499999999999998 0.00021473173704834370 0.00059347309714596669 0.011635909180523775 202.54560492173133 1.5025264897846045e-05 
-0.00062164896728019912 0.0000000000000000 0.0000000000000000 0.0000000000000000 0.0000000000000000 0.010000000000000000 202.47871732339513 0.0000000000000000 
-0.0012298938036811942 0.0000000000000000 0.0000000000000000 0.0000000000000000 0.0000000000000000 0.010000000000000000 202.48013208512333 0.0000000000000000 
-0.00062164896728019912 0.0000000000000000 0.0024999999999999996 0.00053959748467040565 1.0238694017554216e-14 0.010076129863844372 202.61064551909226 2.9537081198450902e-05 
-0.0012298938036811942 0.0000000000000000 0.0024999999999999996 0.0010189016333324663 3.2693696126379309e-15 0.010156457535617438 202.61152528425785 -2.0250988987245228e-05 
-0.00063057683410024882 -0.00031975235046014926 0.0000000000000000 0.0000000000000000 0.0000000000000000 0.010000000000000002 202.47925102048868 0.0000000000000000 
-0.00092577138548069666 0.0000000000000000 0.0000000000000000 0.0000000000000000 0.0000000000000000 0.010000000000000002 202.47942470425923 0.0000000000000000 
-0.0012293352982278940 -0.00034597744546699838 0.0000000000000000 0.0000000000000000 0.0000000000000000 0.010000000000000000 202.48074965069532 0.0000000000000000 
-0.00062164896728019912 0.0000000000000000 0.0012499999999999998 0.00038596974586997457 -7.1392837396302022e-15 0.011569799935853204 202.54468142124369 -2.6401330144868695e-05 
-0.0012298938036811942 0.0000000000000000 0.0012499999999999998 0.00081371482600380626 -9.2168106345889434e-15 0.011697589213542482 202.54582868469060 2.1480715645918245e-05 
-0.00063057683410024882 -0.00031975235046014926 0.0024999999999999996 0.00054569144529587911 0.00027555071178105570 0.010085683427378965 202.61076264419768 1.9132209176083961e-05 
-0.00092577138548069666 0.0000000000000000 0.0024999999999999996 0.00079188519848116237 1.2278715504387873e-14 0.010113470013733621 202.61108540167507 -2.7947008062478044e-06 
-0.0012293352982278940 -0.00034597744546699838 0.0024999999999999996 0.0010140255592545485 0.00028739788242320818 0.010163361133977748 202.61165637154369 -2.2501721923519656e-05 
-0.00092995606616407141 -0.00033286489796357382 0.0000000000000000 0.0000000000000000 0.0000000000000000 0.010000000000000000 202.48000033559202 0.0000000000000000 
-0.00063057683410024882 -0.00031975235046014926 0.0012499999999999998 0.00039368704147352312 0.00020193908355772044 0.011583076773822230 202.54500683234318 -1.3947258332585345e-05 
-0.00092577138548069666 0.0000000000000000 0.0012499999999999998 0.00058733121691583400 -1.1250321306409350e-14 0.011621834244527491 202.54525505296715 8.7106992698420762e-06 
-0.0012293352982278940 -0.00034597744546699838 0.0012499999999999998 0.00081807529626944239 0.00022964614407594512 0.011711807666936518 202.54620301111947 2.3176598378240061e-05 
-0.00092995606616407141 -0.00033286489796357382 0.0024999999999999996 0.00079253117585147376 0.00028280315826173557 0.010122223563107161 202.61120950787068 -8.9346414584531874e-06 
-0.00092995606616407141 -0.00033286489796357382 0.0012499999999999998 0.00059347309715341418 0.00021473173704471279 0.011635909180531088 202.54560492173135 1.5025264898686399e-05 
0.0000000000000000 0.0000000000000000 0.0000000000000000 0.0000000000000000 0.0000000000000000 0.010000000000000000 202.47779344864637 0.0000000000000000 
0.0000000000000000 0.0000000000000000 0.0024999999999999996 7.7516298479428213e-15 8.9864607966426438e-16 0.010042235431381639 202.61044203801083 7.5143800343799869e-05 
0.0000000000000000 -0.00031082448364009956 0.0000000000000000 0.0000000000000000 0.0000000000000000 0.010000000000000004 202.47825538602066 0.0000000000000000 
-0.00031082448364009956 0.0000000000000000 0.0000000000000000 0.0000000000000000 0.0000000000000000 0.010000000000000002 202.47825538602075 0.0000000000000000 
0.0000000000000000 0.0000000000000000 0.0012499999999999998 6.5372464702512649e-15 -8.1399848816015849e-15 0.011526283204066776 202.54411774332860 -8.4767561883211355e-05 
0.0000000000000000 -0.00031082448364009956 0.0024999999999999996 9.2973452549588573e-15 0.00027074464921122228 0.010051116518945268 202.61054377855157 6.1841647087815005e-05 
-0.00031082448364009956 0.0000000000000000 0.0024999999999999996 0.00027074464921662280 7.0875934738501735e-15 0.010051116518950669 202.61054377855154 6.1841647087704891e-05 
-0.00031528841705012441 -0.00031528841705012441 0.0000000000000000 0.0000000000000000 0.0000000000000000 0.010000000000000005 202.47875320325466 0.0000000000000000 
0.0000000000000000 -0.00031082448364009956 0.0012499999999999998 7.0623648325069918e-15 0.00019250853621643885 0.011537481218964972 202.54439958228613 -6.6996654096164771e-05 
-0.00031082448364009956 0.0000000000000000 0.0012499999999999998 0.00019250853623112364 2.3534077768511679e-15 0.011537481218964757 202.54439958228613 -6.6996654095378494e-05 
-0.00031528841705012441 -0.00031528841705012441 0.0024999999999999996 0.00027394650624653504 0.00027394650625420681 0.010060320978420590 202.61065321137465 4.9067864060247929e-05 
-0.00031528841705012441 -0.00031528841705012441 0.0012499999999999998 0.00019632287392469194 0.00019632287392064830 0.011549380401924048 202.54470320731465 -5.0374271411777678e-05 
0.00069195489093399677 -0.0012287767927745938 0.0000000000000000 0.0000000000000000 0.0000000000000000 0.010000000000000000 202.48136721626690 0.0000000000000000 
0.00063950470092029852 -0.00063950470092029863 0.0000000000000000 0.0000000000000000 0.0000000000000000 0.010000000000000000 202.47978471758205 0.0000000000000000 
0.00069195489093399677 -0.0012287767927745938 0.0024999999999999996 -0.00056692661776847379 0.00099891626090144962 0.010180981014480589 202.61178745882967 -2.5879428103799712e-05 
0.00063950470092029852 -0.00063950470092029863 0.0024999999999999996 -0.00054801803308474853 0.00054801803307950436 0.010110348840486066 202.61087976930324 -3.0410253914557517e-06 
0.00034597744546699838 -0.0012293352982278940 0.0000000000000000 0.0000000000000000 0.0000000000000000 0.0099999999999999950 202.48074965069503 0.0000000000000000 
0.00066572979592714764 -0.00093414074684744627 0.0000000000000000 0.0000000000000000 0.0000000000000000 0.0099999999999999950 202.48057596692448 0.0000000000000000 
0.00031975235046014926 -0.00063057683410024882 0.0000000000000000 0.0000000000000000 0.0000000000000000 0.010000000000000007 202.47925102048850 0.0000000000000000 
0.00069195489093399677 -0.0012287767927745938 0.0012499999999999998 -0.00046266107771773997 0.00082985104730424965 0.011752939905448095 202.54657733754829 2.4453758604641633e-05 
0.00063950470092029852 -0.00063950470092029863 0.0012499999999999998 -0.00040507476826901330 0.00040507476825105078 0.011619001988561114 202.54533224344266 1.0489853796732459e-05 
0.00034597744546699838 -0.0012293352982278940 0.0024999999999999996 -0.00028739788241770748 0.0010140255592646556 0.010163361133973908 202.61165637154392 -2.2501721922774690e-05 
0.00066572979592714764 -0.00093414074684744627 0.0024999999999999996 -0.00056070417333062392 0.00078658880609148226 0.010144817031074026 202.61133361406644 -2.1236450275867734e-05 
0.00031975235046014926 -0.00063057683410024882 0.0024999999999999996 -0.00027555071177562954 0.00054569144528410934 0.010085683427375026 202.61076264419779 1.9132209176962300e-05 
0.00033286489796357382 -0.00092995606616407152 0.0000000000000000 0.0000000000000000 0.0000000000000000 0.0099999999999999950 202.48000033559174 0.0000000000000000 
0.00034597744546699838 -0.0012293352982278940 0.0012499999999999998 -0.00022964614408352752 0.00081807529624936882 0.011711807666925887 202.54620301111947 2.3176598377837947e-05 
0.00066572979592714764 -0.00093414074684744627 0.0012499999999999998 -0.00043134025079180844 0.00060569141148124415 0.011674787469199383 202.54595479049544 2.6101564238613704e-05 
0.00031975235046014926 -0.00063057683410024893 0.0012499999999999998 -0.00020193908356200252 0.00039368704144488061 0.011583076773818327 202.54500683234312 -1.3947258334557643e-05 
0.00033286489796357382 -0.00092995606616407152 0.0024999999999999996 -0.00028280315826357193 0.00079253117584920571 0.010122223563103138 202.61120950787085 -8.9346414572734281e-06 
0.00033286489796357382 -0.00092995606616407141 0.0012499999999999998 -0.00021473173705158352 0.00059347309713556669 0.011635909180525594 202.54560492173127 1.5025264897427394e-05 
0.0011755764485346602 -0.0011755764485346602 0.0000000000000000 0.0000000000000000 0.0000000000000000 0.010000000000000000 202.48286176228544 0.0000000000000000 
0.0012287767927745938 -0.00069195489093399677 0.0000000000000000 0.0000000000000000 0.0000000000000000 0.010000000000000000 202.48136721626699 0.0000000000000000 
0.0011755764485346602 -0.0011755764485346602 0.0024999999999999996 -0.00092272228745103157 0.00092272228744888171 0.010206866988228902 202.61234843496104 -2.0998175265898109e-05 
0.0012287767927745938 -0.00069195489093399677 0.0024999999999999996 -0.00099891626089827637 0.00056692661775922283 0.010180981014481824 202.61178745882964 -2.5879428104171664e-05 
0.00093376566973432846 -0.0012021766206546270 0.0000000000000000 0.0000000000000000 0.0000000000000000 0.010000000000000009 202.48211448927617 0.0000000000000000 
0.0012021766206546270 -0.00093376566973432846 0.0000000000000000 0.0000000000000000 0.0000000000000000 0.0099999999999999985 202.48211448927620 0.0000000000000000 
0.00093414074684744616 -0.00066572979592714764 0.0000000000000000 0.0000000000000000 0.0000000000000000 0.010000000000000005 202.48057596692450 0.0000000000000000 
0.0011755764485346602 -0.0011755764485346602 0.0012499999999999998 -0.00081836363675808410 0.00081836363675643481 0.011842483618203200 202.54760509862319 1.5940630781068613e-05 
0.0012287767927745938 -0.00069195489093399677 0.0012499999999999998 -0.00082985104732096349 0.00046266107770586286 0.011752939905448999 202.54657733754831 2.4453758604660146e-05 
0.00093376566973432846 -0.0012021766206546270 0.0024999999999999996 -0.00075333230526211323 0.00096253315711169649 0.010194239945841730 202.61206794689534 -2.5533731749494475e-05 
0.0012021766206546270 -0.00093376566973432846 0.0024999999999999996 -0.00096253315712518830 0.00075333230526028222 0.010194239945846340 202.61206794689531 -2.5533731749620442e-05 
0.00093414074684744616 -0.00066572979592714764 0.0024999999999999996 -0.00078658880609172111 0.00056070417332034980 0.010144817031074692 202.61133361406644 -2.1236450276294133e-05 
0.00093395320829088731 -0.00093395320829088731 0.0000000000000000 0.0000000000000000 0.0000000000000000 0.010000000000000002 202.48134522810034 0.0000000000000000 
0.00093376566973432846 -0.0012021766206546270 0.0012499999999999998 -0.00063472017801300101 0.00082395546394747226 0.011790321250084564 202.54709121808577 2.2286900707495713e-05 
0.0012021766206546270 -0.00093376566973432835 0.0012499999999999998 -0.00082395546395984452 0.00063472017800971696 0.011790321250084272 202.54709121808577 2.2286900707411684e-05 
0.00093414074684744616 -0.00066572979592714764 0.0012499999999999998 -0.00060569141149696552 0.00043134025078795361 0.011674787469199701 202.54595479049547 2.6101564238781084e-05 
0.00093395320829088731 -0.00093395320829088731 0.0024999999999999996 -0.00077312526803544632 0.00077312526802857735 0.010169391715483337 202.61170078048087 -2.7329241905487248e-05 
0.00093395320829088731 -0.00093395320829088731 0.0012499999999999998 -0.00061791943108677682 0.00061791943107677278 0.011723495311067282 202.54652300429061 2.8698581245792022e-05 
0.00062164896728019912 0.0000000000000000 0.0000000000000000 0.0000000000000000 0.0000000000000000 0.010000000000000000 202.47871732339490 0.0000000000000000 
0.00062164896728019912 0.0000000000000000 0.0024999999999999996 -0.00053959748466588539 2.5164637136010798e-15 0.010076129863842251 202.61064551909246 2.9537081198080098e-05 
0.00063057683410024882 -0.00031975235046014932 0.0000000000000000 0.0000000000000000 0.0000000000000000 0.010000000000000000 202.47925102048848 0.0000000000000000 
0.00031082448364009956 0.0000000000000000 0.0000000000000000 0.0000000000000000 0.0000000000000000 0.010000000000000004 202.47825538602063 0.0000000000000000 
0.00062164896728019912 0.0000000000000000 0.0012499999999999998 -0.00038596974586883274 -1.3479096310214974e-14 0.011569799935851730 202.54468142124367 -2.6401330144590113e-05 
0.00063057683410024882 -0.00031975235046014932 0.0024999999999999996 -0.00054569144528342044 0.00027555071177170462 0.010085683427376851 202.61076264419785 1.9132209176404892e-05 
0.00031082448364009956 0.0000000000000000 0.0024999999999999996 -0.00027074464920884327 4.8403414312428644e-15 0.010051116518949681 202.61054377855163 6.1841647087387233e-05 
0.00031528841705012441 -0.00031528841705012441 0.0000000000000000 0.0000000000000000 0.0000000000000000 0.010000000000000002 202.47875320325457 0.0000000000000000 
0.00063057683410024882 -0.00031975235046014932 0.0012499999999999998 -0.00039368704147284397 0.00020193908354858024 0.011583076773819896 202.54500683234318 -1.3947258333641619e-05 
0.00031082448364009956 0.0000000000000000 0.0012499999999999998 -0.00019250853621773995 -7.3270959595393788e-15 0.011537481218965324 202.54439958228613 -6.6996654095288953e-05 
0.00031528841705012441 -0.00031528841705012441 0.0024999999999999996 -0.00027394650624052407 0.00027394650624702608 0.010060320978420431 202.61065321137471 4.9067864060422323e-05 
0.00031528841705012441 -0.00031528841705012446 0.0012499999999999998 -0.00019632287392553911 0.00019632287391135257 0.011549380401923413 202.54470320731465 -5.0374271412885143e-05 
0.0012298938036811942 0.0000000000000000 0.0000000000000000 0.0000000000000000 0.0000000000000000 0.010000000000000000 202.48013208512316 0.0000000000000000 
0.0012298938036811942 0.0000000000000000 0.0024999999999999996 -0.0010189016333274285 -2.8443870589226872e-16 0.010156457535611613 202.61152528425828 -2.0250988987441926e-05 
0.0012293352982278940 -0.00034597744546699838 0.0000000000000000 0.0000000000000000 0.0000000000000000 0.010000000000000002 202.48074965069509 0.0000000000000000 
0.00092577138548069666 0.0000000000000000 0.0000000000000000 0.0000000000000000 0.0000000000000000 0.0099999999999999985 202.47942470425903 0.0000000000000000 
0.0012298938036811942 0.0000000000000000 0.0012499999999999998 -0.00081371482599917747 -3.4571065655148285e-15 0.011697589213538041 202.54582868469072 2.1480715646121025e-05 
0.0012293352982278940 -0.00034597744546699838 0.0024999999999999996 -0.0010140255592618812 0.00028739788241432325 0.010163361133974152 202.61165637154397 -2.2501721923563647e-05 
0.00092577138548069666 0.0000000000000000 0.0024999999999999996 -0.00079188519848178481 9.7498291090511599e-15 0.010113470013728821 202.61108540167535 -2.7947008065666357e-06 
0.00092995606616407141 -0.00033286489796357382 0.0000000000000000 0.0000000000000000 0.0000000000000000 0.0099999999999999985 202.48000033559177 0.0000000000000000 
0.0012293352982278940 -0.00034597744546699838 0.0012499999999999998 -0.00081807529626580619 0.00022964614407655984 0.011711807666928446 202.54620301111953 2.3176598378327082e-05 
0.00092577138548069666 0.0000000000000000 0.0012499999999999998 -0.00058733121690771441 -6.4199148976811179e-15 0.011621834244524754 202.54525505296721 8.7106992701779180e-06 
0.00092995606616407141 -0.00033286489796357382 0.0024999999999999996 -0.00079253117585491415 0.00028280315825492884 0.010122223563099409 202.61120950787091 -8.9346414583162984e-06 
0.00092995606616407141 -0.00033286489796357382 0.0012499999999999998 -0.00059347309715076363 0.00021473173704505391 0.011635909180528403 202.54560492173133 1.5025264898320363e-05 
-0.00063950470092029863 0.00063950470092029852 0.0000000000000000 0.0000000000000000 0.0000000000000000 0.010000000000000000 202.47978471758199 0.0000000000000000 
-0.0012287767927745938 0.00069195489093399677 0.0000000000000000 0.0000000000000000 0.0000000000000000 0.010000000000000000 202.48136721626702 0.0000000000000000 
-0.00063950470092029863 0.00063950470092029852 0.0024999999999999996 0.00054801803308120070 -0.00054801803307243395 0.010110348840485447 202.61087976930330 -3.0410253917098742e-06 
-0.0012287767927745938 0.00069195489093399677 0.0024999999999999996 0.00099891626090090882 -0.00056692661775432321 0.010180981014480287 202.61178745882978 -2.5879428104278224e-05 
-0.00063057683410024882 0.00031975235046014926 0.0000000000000000 0.0000000000000000 0.0000000000000000 0.010000000000000005 202.47925102048856 0.0000000000000000 
-0.00093414074684744627 0.00066572979592714764 0.0000000000000000 0.0000000000000000 0.0000000000000000 0.010000000000000000 202.48057596692450 0.0000000000000000 
-0.0012293352982278940 0.00034597744546699838 0.0000000000000000 0.0000000000000000 0.0000000000000000 0.0099999999999999898 202.48074965069517 0.0000000000000000 
-0.00063950470092029863 0.00063950470092029852 0.0012499999999999998 0.00040507476826255547 -0.00040507476826160430 0.011619001988558659 202.54533224344266 1.0489853797206641e-05 
-0.0012287767927745938 0.00069195489093399677 0.0012499999999999998 0.00082985104731407436 -0.00046266107772159214 0.011752939905445571 202.54657733754840 2.4453758604924823e-05 
-0.00063057683410024882 0.00031975235046014926 0.0024999999999999996 0.00054569144528319004 -0.00027555071176234546 0.010085683427376370 202.61076264419779 1.9132209176405912e-05 
-0.00093414074684744627 0.00066572979592714764 0.0024999999999999996 0.00078658880608938346 -0.00056070417329281042 0.010144817031070107 202.61133361406655 -2.1236450276460650e-05 
-0.0012293352982278940 0.00034597744546699838 0.0024999999999999996 0.0010140255592598420 -0.00028739788240234108 0.010163361133976562 202.61165637154383 -2.2501721923648686e-05 
-0.00092995606616407141 0.00033286489796357382 0.0000000000000000 0.0000000000000000 0.0000000000000000 0.010000000000000002 202.48000033559185 0.0000000000000000 
-0.00063057683410024893 0.00031975235046014926 0.0012499999999999998 0.00039368704148198542 -0.00020193908356403928 0.011583076773818672 202.54500683234318 -1.3947258333189174e-05 
-0.00093414074684744627 0.00066572979592714764 0.0012499999999999998 0.00060569141149415396 -0.00043134025079852745 0.011674787469196812 202.54595479049553 2.6101564239074710e-05 
-0.0012293352982278940 0.00034597744546699838 0.0012499999999999998 0.00081807529628050298 -0.00022964614409246435 0.011711807666929587 202.54620301111947 2.3176598378436644e-05 
-0.00092995606616407141 0.00033286489796357382 0.0024999999999999996 0.00079253117585401209 -0.00028280315824575448 0.010122223563104306 202.61120950787080 -8.9346414583638322e-06 
-0.00092995606616407141 0.00033286489796357382 0.0012499999999999998 0.00059347309716161238 -0.00021473173705926569 0.011635909180524153 202.54560492173130 1.5025264898521258e-05 
0.0000000000000000 0.00062164896728019912 0.0000000000000000 0.0000000000000000 0.0000000000000000 0.010000000000000000 202.47871732339539 0.0000000000000000 
0.0000000000000000 0.00062164896728019912 0.0024999999999999996 1.5845339644220750e-15 -0.00053959748465310785 0.010076129863841595 202.61064551909232 2.9537081198401618e-05 
0.0000000000000000 0.00031082448364009956 0.0000000000000000 0.0000000000000000 0.0000000000000000 0.010000000000000002 202.47825538602086 0.0000000000000000 
-0.00031975235046014932 0.00063057683410024882 0.0000000000000000 0.0000000000000000 0.0000000000000000 0.010000000000000000 202.47925102048868 0.0000000000000000 
0.0000000000000000 0.00062164896728019912 0.0012499999999999998 1.7305044668118857e-15 -0.00038596974586344290 0.011569799935853246 202.54468142124387 -2.6401330145162456e-05 
0.0000000000000000 0.00031082448364009956 0.0024999999999999996 -1.8951969367916091e-16 -0.00027074464920416635 0.010051116518947311 202.61054377855157 6.1841647087400962e-05 
-0.00031975235046014932 0.00063057683410024882 0.0024999999999999996 0.00027555071177462611 -0.00054569144528247382 0.010085683427375191 202.61076264419779 1.9132209176577253e-05 
-0.00031528841705012441 0.00031528841705012441 0.0000000000000000 0.0000000000000000 0.0000000000000000 0.010000000000000004 202.47875320325471 0.0000000000000000 
0.0000000000000000 0.00031082448364009956 0.0012499999999999998 1.8199371572087217e-14 -0.00019250853622297911 0.011537481218966066 202.54439958228622 -6.6996654095250098e-05 
-0.00031975235046014932 0.00063057683410024882 0.0012499999999999998 0.00020193908356611954 -0.00039368704145830477 0.011583076773819034 202.54500683234323 -1.3947258333687347e-05 
-0.00031528841705012441 0.00031528841705012441 0.0024999999999999996 0.00027394650624847371 -0.00027394650624154387 0.010060320978417808 202.61065321137468 4.9067864060364230e-05 
-0.00031528841705012446 0.00031528841705012441 0.0012499999999999998 0.00019632287393354459 -0.00019632287392240669 0.011549380401922958 202.54470320731468 -5.0374271412133080e-05 
-0.00069195489093399677 0.0012287767927745938 0.0000000000000000 0.0000000000000000 0.0000000000000000 0.010000000000000000 202.48136721626690 0.0000000000000000 
-0.0011755764485346602 0.0011755764485346602 0.0000000000000000 0.0000000000000000 0.0000000000000000 0.010000000000000000 202.48286176228487 0.0000000000000000 
-0.00069195489093399677 0.0012287767927745938 0.0024999999999999996 0.00056692661776106695 -0.00099891626089891757 0.010180981014475971 202.61178745882970 -2.5879428103954000e-05 
-0.0011755764485346602 0.0011755764485346602 0.0024999999999999996 0.00092272228745619031 -0.00092272228744300999 0.010206866988221954 202.61234843496112 -2.0998175265974129e-05 
-0.00066572979592714764 0.00093414074684744616 0.0000000000000000 0.0000000000000000 0.0000000000000000 0.010000000000000004 202.48057596692445 0.0000000000000000 
-0.00093376566973432846 0.0012021766206546270 0.0000000000000000 0.0000000000000000 0.0000000000000000 0.0099999999999999985 202.48211448927589 0.0000000000000000 
-0.0012021766206546270 0.00093376566973432846 0.0000000000000000 0.0000000000000000 0.0000000000000000 0.010000000000000007 202.48211448927594 0.0000000000000000 