# For a description of the Tecplot format see the Tecplot User's guide.
#
Variables=x,y,z,u,v,w,p,T
Zone f=fepoint, n=16513, e=15360, et=brick, c=black
-0.00117558 -0.00117558 0.00000 0.0000000000000000 0.0000000000000000 0.010000000000000000 202.48127938874904 0.0000000000000000 
-0.00069195489093399677 -0.0012287767927745938 0.0000000000000000 0.0000000000000000 0.0000000000000000 0.010000000000000000 202.47978998837183 0.0000000000000000 
-0.00063950470092029852 -0.00063950470092029852 0.0000000000000000 0.0000000000000000 0.0000000000000000 0.010000000000000000 202.47821726564990 0.0000000000000000 
-0.0012287767927745938 -0.00069195489093399677 0.0000000000000000 0.0000000000000000 0.0000000000000000 0.010000000000000000 202.47978998837189 0.0000000000000000 
-0.0011755764485346602 -0.0011755764485346602 0.0024999999999999996 0.00092827515748287635 0.00092827515749622494 0.010199944079647761 202.61095073443300 -2.1141644861578642e-05 
-0.00069195489093399677 -0.0012287767927745938 0.0024999999999999996 0.00057056603785471123 0.0010053537170779923 0.010175140058235152 202.61039762297162 -2.5964035683861323e-05 
-0.00063950470092029852 -0.00063950470092029852 0.0024999999999999996 0.00055187117058769859 0.00055187117060122510 0.010105743408287012 202.60949984193124 -2.8396074464311999e-06 
-0.0012287767927745938 -0.00069195489093399677 0.0024999999999999996 0.0010053537170597051 0.00057056603786168850 0.010175140058234730 202.61039762297156 -2.5964035684229122e-05 
-0.00093376566973432846 -0.0012021766206546270 0.0000000000000000 0.0000000000000000 0.0000000000000000 0.0099999999999999967 202.48053468856043 0.0000000000000000 
-0.00066572979592714764 -0.00093414074684744616 0.0000000000000000 0.0000000000000000 0.0000000000000000 0.010000000000000000 202.47900362701085 0.0000000000000000 
-0.00093414074684744616 -0.00066572979592714764 0.0000000000000000 0.0000000000000000 0.0000000000000000 0.010000000000000004 202.47900362701091 0.0000000000000000 
-0.0012021766206546270 -0.00093376566973432846 0.0000000000000000 0.0000000000000000 0.0000000000000000 0.010000000000000000 202.48053468856045 0.0000000000000000 
-0.0011755764485346602 -0.0011755764485346602 0.0012499999999999998 0.00082259734183067010 0.00082259734182452268 0.011853294305866194 202.54611506159102 1.6029087860302467e-05 
-0.00069195489093399677 -0.0012287767927745938 0.0012499999999999998 0.00046513322149632899 0.00083424789270426249 0.011763508179049751 202.54509380567174 2.4603848099543625e-05 
-0.00063950470092029852 -0.00063950470092029852 0.0012499999999999998 0.00040730528650140659 0.00040730528649646387 0.011629038110280036 202.54385855379059 1.0071056708952705e-05 
-0.0012287767927745938 -0.00069195489093399677 0.0012499999999999998 0.00083424789271427651 0.00046513322149533619 0.011763508179050038 202.54509380567174 2.4603848099788800e-05 
-0.00093376566973432846 -0.0012021766206546270 0.0024999999999999996 0.00075803148273228713 0.00096856717140698251 0.010187964849413342 202.61067417870231 -2.5671395792359250e-05 
-0.00066572979592714764 -0.00093414074684744616 0.0024999999999999996 0.00056450381293053024 0.00079191735992337230 0.010139746054098110 202.60994873245141 -2.1132750914258447e-05 
-0.00093414074684744616 -0.00066572979592714764 0.0024999999999999996 0.00079191735990975212 0.00056450381294279332 0.010139746054097587 202.60994873245141 -2.1132750914558507e-05 
-0.0012021766206546270 -0.00093376566973432846 0.0024999999999999996 0.00096856717139529036 0.00075803148274014467 0.010187964849412773 202.61067417870228 -2.5671395792496341e-05 
-0.00093395320829088731 -0.00093395320829088731 0.0000000000000000 0.0000000000000000 0.0000000000000000 0.010000000000000002 202.47976915778565 0.0000000000000000 
-0.00093376566973432835 -0.0012021766206546270 0.0012499999999999998 0.00063806113168890185 0.00082827585293213351 0.011801002092329149 202.54560443363138 2.2431071026299069e-05 
-0.00066572979592714764 -0.00093414074684744605 0.0012499999999999998 0.00043369129679093215 0.00060898137963402233 0.011685070184314200 202.54447617973113 2.5911465361905284e-05 
-0.00093414074684744616 -0.00066572979592714764 0.0012499999999999998 0.00060898137964124160 0.00043369129678290385 0.011685070184314533 202.54447617973113 2.5911465362192164e-05 
-0.0012021766206546270 -0.00093376566973432835 0.0012499999999999998 0.00082827585293919188 0.00063806113168424856 0.011801002092329323 202.54560443363135 2.2431071026361441e-05 
-0.00093395320829088731 -0.00093395320829088731 0.0024999999999999996 0.00077818729729535474 0.00077818729730799393 0.010163846029137925 202.61031145557683 -2.7357393908363368e-05 
-0.00093395320829088731 -0.00093395320829088731 0.0012499999999999998 0.00062123665801923377 0.00062123665801196029 0.011733963838518284 202.54504030668124 2.8714330132248117e-05 
0.0000000000000000 -0.0012298938036811942 0.0000000000000000 0.0000000000000000 0.0000000000000000 0.010000000000000000 202.47855741529619 0.0000000000000000 
0.0000000000000000 -0.00062164896728019912 0.0000000000000000 0.0000000000000000 0.0000000000000000 0.010000000000000000 202.47715218682444 0.0000000000000000 
0.0000000000000000 -0.0012298938036811942 0.0024999999999999996 -4.2519929818184058e-15 0.0010257295532193416 0.010151180983993112 202.61014044772261 -2.0193271989861675e-05 
0.0000000000000000 -0.00062164896728019912 0.0024999999999999996 -5.5529753818305271e-15 0.00054351055080289568 0.010071855202860960 202.60926990153413 2.9561879862215767e-05 
-0.00034597744546699838 -0.0012293352982278940 0.0000000000000000 0.0000000000000000 0.0000000000000000 0.010000000000000002 202.47917370183401 0.0000000000000000 
0.0000000000000000 -0.00092577138548069666 0.0000000000000000 0.0000000000000000 0.0000000000000000 0.010000000000000002 202.47785480106032 0.0000000000000000 
-0.00031975235046014926 -0.00063057683410024882 0.0000000000000000 0.0000000000000000 0.0000000000000000 0.0099999999999999985 202.47768472623716 0.0000000000000000 
0.0000000000000000 -0.0012298938036811942 0.0012499999999999998 2.7053506465616688e-15 0.00081808672187264053 0.011707963332128691 202.54434893150940 2.1487029221219604e-05 
0.0000000000000000 -0.00062164896728019912 0.0012499999999999998 2.3860868243422662e-15 0.00038811338878316087 0.011579593071418036 202.54321104417929 -2.6513638085257482e-05 
-0.00034597744546699838 -0.0012293352982278940 0.0024999999999999996 0.00028929260682006113 0.0010207517476589867 0.010157952514083085 202.61026903534713 -2.2483125183610265e-05 
0.0000000000000000 -0.00092577138548069666 0.0024999999999999996 -1.9213628238906135e-15 0.00079744134038498720 0.010108833827092007 202.60970517462837 -2.6046719104857448e-06 
-0.00031975235046014926 -0.00063057683410024882 0.0024999999999999996 0.00027753319414481530 0.00054961603630019099 0.010081329756921073 202.60938487173269 1.9244723378120825e-05 
-0.00033286489796357382 -0.00092995606616407141 0.0000000000000000 0.0000000000000000 0.0000000000000000 0.0099999999999999985 202.47842921403560 0.0000000000000000 
-0.00034597744546699838 -0.0012293352982278940 0.0012499999999999998 0.00023087391706961191 0.00082244984054014774 0.011722234869520723 202.54472136859056 2.3233205269322132e-05 
0.0000000000000000 -0.00092577138548069677 0.0012499999999999998 2.2347451194776672e-15 0.00059056080989653228 0.011631886900659593 202.54377998784435 8.2864834328288872e-06 
-0.00031975235046014926 -0.00063057683410024882 0.0012499999999999998 0.00020304930135749271 0.00039586709721421270 0.011592937615236550 202.54353479898492 -1.4225694232257654e-05 
-0.00033286489796357382 -0.00092995606616407141 0.0024999999999999996 0.00028476740729117958 0.00079804036850710078 0.010117483127906701 202.60982695353991 -8.7513884160939606e-06 
-0.00033286489796357382 -0.00092995606616407141 0.0012499999999999998 0.00021590050384670434 0.00059672408973625963 0.011646025477807298 202.54412808378774 1.4650671103155966e-05 
-0.00062164896728019912 0.0000000000000000 0.0000000000000000 0.0000000000000000 0.0000000000000000 0.010000000000000000 202.47715218682447 0.0000000000000000 
-0.0012298938036811942 0.0000000000000000 0.0000000000000000 0.0000000000000000 0.0000000000000000 0.010000000000000000 202.47855741529625 0.0000000000000000 
-0.00062164896728019912 0.0000000000000000 0.0024999999999999996 0.00054351055079171473 8.0523413843302476e-15 0.010071855202862535 202.60926990153413 2.9561879861636759e-05 
-0.0012298938036811942 0.0000000000000000 0.0024999999999999996 0.0010257295532072521 5.0133827173105063e-15 0.010151180983994807 202.61014044772261 -2.0193271990776613e-05 
-0.00063057683410024882 -0.00031975235046014926 0.0000000000000000 0.0000000000000000 0.0000000000000000 0.010000000000000002 202.47768472623719 0.0000000000000000 
-0.00092577138548069666 0.0000000000000000 0.0000000000000000 0.0000000000000000 0.0000000000000000 0.010000000000000002 202.47785480106035 0.0000000000000000 
-0.0012293352982278940 -0.00034597744546699838 0.0000000000000000 0.0000000000000000 0.0000000000000000 0.010000000000000000 202.47917370183407 0.0000000000000000 
-0.00062164896728019912 0.0000000000000000 0.0012499999999999998 0.00038811338879306170 -3.0059191949871860e-15 0.011579593071418162 202.54321104417929 -2.6513638084312505e-05 
-0.0012298938036811942 0.0000000000000000 0.0012499999999999998 0.00081808672187959005 -5.6567020564734212e-15 0.011707963332127985 202.54434893150943 2.1487029222097157e-05 
-0.00063057683410024882 -0.00031975235046014926 0.0024999999999999996 0.00054961603629047979 0.00027753319415593954 0.010081329756922398 202.60938487173269 1.9244723377732122e-05 
-0.00092577138548069666 0.0000000000000000 0.0024999999999999996 0.00079744134037273485 8.2365066987862137e-15 0.010108833827094935 202.60970517462835 -2.6046719114020057e-06 
-0.0012293352982278940 -0.00034597744546699838 0.0024999999999999996 0.0010207517476498878 0.00028929260682903751 0.010157952514085033 202.61026903534707 -2.2483125184337432e-05 
-0.00092995606616407141 -0.00033286489796357382 0.0000000000000000 0.0000000000000000 0.0000000000000000 0.010000000000000000 202.47842921403563 0.0000000000000000 
-0.00063057683410024882 -0.00031975235046014926 0.0012499999999999998 0.00039586709722100197 0.00020304930135055769 0.011592937615236555 202.54353479898492 -1.4225694231689314e-05 
-0.00092577138548069666 0.0000000000000000 0.0012499999999999998 0.00059056080990465426 -4.5451561338541912e-15 0.011631886900659536 202.54377998784435 8.2864834339771962e-06 
-0.0012293352982278940 -0.00034597744546699838 0.0012499999999999998 0.00082244984054658009 0.00023087391706574196 0.011722234869520107 202.54472136859056 2.3233205269961801e-05 
-0.00092995606616407141 -0.00033286489796357382 0.0024999999999999996 0.00079804036849588623 0.00028476740730147521 0.010117483127906777 202.60982695353988 -8.7513884168005233e-06 
-0.00092995606616407141 -0.00033286489796357382 0.0012499999999999998 0.00059672408974309628 0.00021590050384047489 0.011646025477807428 202.54412808378777 1.4650671103972728e-05 
0.0000000000000000 0.0000000000000000 0.0000000000000000 0.0000000000000000 0.0000000000000000 0.010000000000000000 202.47623030418103 0.0000000000000000 
0.0000000000000000 0.0000000000000000 0.0024999999999999996 -4.9173583964084380e-15 7.0145527837506524e-15 0.010038196738976685 202.60907020937279 7.4567403950038098e-05 
0.0000000000000000 -0.00031082448364009956 0.0000000000000000 0.0000000000000000 0.0000000000000000 0.010000000000000004 202.47669124550274 0.0000000000000000 
-0.00031082448364009956 0.0000000000000000 0.0000000000000000 0.0000000000000000 0.0000000000000000 0.010000000000000002 202.47669124550276 0.0000000000000000 
0.0000000000000000 0.0000000000000000 0.0012499999999999998 2.9269763405913222e-15 -5.2241333812971328e-15 0.011535839401534310 202.54265025677691 -8.3286078423946822e-05 
0.0000000000000000 -0.00031082448364009956 0.0024999999999999996 -5.8776240423065136e-15 0.00027274897084830752 0.010047025052849474 202.60917005545346 6.1475138409129403e-05 
-0.00031082448364009956 0.0000000000000000 0.0024999999999999996 0.00027274897083647535 7.0813711760391774e-15 0.010047025052850753 202.60917005545343 6.1475138408948355e-05 
-0.00031528841705012441 -0.00031528841705012441 0.0000000000000000 0.0000000000000000 0.0000000000000000 0.010000000000000005 202.47718798586996 0.0000000000000000 
0.0000000000000000 -0.00031082448364009956 0.0012499999999999998 3.0108297233300660e-15 0.00019357624080907075 0.011547099731540063 202.54293065047810 -6.6086388096249518e-05 
-0.00031082448364009956 0.0000000000000000 0.0012499999999999998 0.00019357624081645780 -3.3297780788264808e-15 0.011547099731539945 202.54293065047813 -6.6086388095850301e-05 
-0.00031528841705012441 -0.00031528841705012441 0.0024999999999999996 0.00027595954005819932 0.00027595954006904113 0.010056169753188904 202.60927746359306 4.8879833688604748e-05 
-0.00031528841705012441 -0.00031528841705012441 0.0012499999999999998 0.00019740849816112307 0.00019740849815455736 0.011559063647924323 202.54323272473150 -4.9917598421933463e-05 
0.00069195489093399677 -0.0012287767927745938 0.0000000000000000 0.0000000000000000 0.0000000000000000 0.010000000000000000 202.47978998837189 0.0000000000000000 
0.00063950470092029852 -0.00063950470092029863 0.0000000000000000 0.0000000000000000 0.0000000000000000 0.010000000000000000 202.47821726564993 0.0000000000000000 
0.00069195489093399677 -0.0012287767927745938 0.0024999999999999996 -0.00057056603786163982 0.0010053537170760911 0.010175140058233913 202.61039762297159 -2.5964035683790521e-05 
0.00063950470092029852 -0.00063950470092029863 0.0024999999999999996 -0.00055187117059871181 0.00055187117060048101 0.010105743408285458 202.60949984193130 -2.8396074464493501e-06 
0.00034597744546699838 -0.0012293352982278940 0.0000000000000000 0.0000000000000000 0.0000000000000000 0.0099999999999999950 202.47917370183404 0.0000000000000000 
0.00066572979592714764 -0.00093414074684744627 0.0000000000000000 0.0000000000000000 0.0000000000000000 0.0099999999999999950 202.47900362701091 0.0000000000000000 
0.00031975235046014926 -0.00063057683410024882 0.0000000000000000 0.0000000000000000 0.0000000000000000 0.010000000000000007 202.47768472623719 0.0000000000000000 
0.00069195489093399677 -0.0012287767927745938 0.0012499999999999998 -0.00046513322150207130 0.00083424789270527026 0.011763508179049564 202.54509380567174 2.4603848099470638e-05 
0.00063950470092029852 -0.00063950470092029863 0.0012499999999999998 -0.00040730528650277290 0.00040730528649852331 0.011629038110279696 202.54385855379061 1.0071056708959378e-05 
0.00034597744546699838 -0.0012293352982278940 0.0024999999999999996 -0.00028929260682502965 0.0010207517476636526 0.010157952514084162 202.61026903534710 -2.2483125183564084e-05 
0.00066572979592714764 -0.00093414074684744627 0.0024999999999999996 -0.00056450381294136630 0.00079191735992145326 0.010139746054095287 202.60994873245144 -2.1132750914192013e-05 
0.00031975235046014926 -0.00063057683410024882 0.0024999999999999996 -0.00027753319415361349 0.00054961603630201234 0.010081329756920561 202.60938487173271 1.9244723378101290e-05 
0.00033286489796357382 -0.00092995606616407152 0.0000000000000000 0.0000000000000000 0.0000000000000000 0.0099999999999999950 202.47842921403563 0.0000000000000000 
0.00034597744546699838 -0.0012293352982278940 0.0012499999999999998 -0.00023087391707100305 0.00082244984054124929 0.011722234869519803 202.54472136859059 2.3233205269272621e-05 
0.00066572979592714764 -0.00093414074684744627 0.0012499999999999998 -0.00043369129678933702 0.00060898137963455619 0.011685070184314023 202.54447617973119 2.5911465361829333e-05 
0.00031975235046014926 -0.00063057683410024893 0.0012499999999999998 -0.00020304930135485016 0.00039586709721630456 0.011592937615236087 202.54353479898495 -1.4225694232237088e-05 
0.00033286489796357382 -0.00092995606616407152 0.0024999999999999996 -0.00028476740729778741 0.00079804036850738332 0.010117483127905827 202.60982695353991 -8.7513884160565234e-06 
0.00033286489796357382 -0.00092995606616407141 0.0012499999999999998 -0.00021590050384581551 0.00059672408973722045 0.011646025477806387 202.54412808378777 1.4650671103115217e-05 
0.0011755764485346602 -0.0011755764485346602 0.0000000000000000 0.0000000000000000 0.0000000000000000 0.010000000000000000 202.48127938874876 0.0000000000000000 
0.0012287767927745938 -0.00069195489093399677 0.0000000000000000 0.0000000000000000 0.0000000000000000 0.010000000000000000 202.47978998837186 0.0000000000000000 
0.0011755764485346602 -0.0011755764485346602 0.0024999999999999996 -0.00092827515749485028 0.00092827515749505823 0.010199944079642639 202.61095073443315 -2.1141644861509924e-05 
0.0012287767927745938 -0.00069195489093399677 0.0024999999999999996 -0.0010053537170756702 0.00057056603786407993 0.010175140058233934 202.61039762297156 -2.5964035684153990e-05 
0.00093376566973432846 -0.0012021766206546270 0.0000000000000000 0.0000000000000000 0.0000000000000000 0.010000000000000009 202.48053468856034 0.0000000000000000 
0.0012021766206546270 -0.00093376566973432846 0.0000000000000000 0.0000000000000000 0.0000000000000000 0.0099999999999999985 202.48053468856031 0.0000000000000000 
0.00093414074684744616 -0.00066572979592714764 0.0000000000000000 0.0000000000000000 0.0000000000000000 0.010000000000000005 202.47900362701091 0.0000000000000000 
0.0011755764485346602 -0.0011755764485346602 0.0012499999999999998 -0.00082259734183046432 0.00082259734182427678 0.011853294305866451 202.54611506159097 1.6029087860254948e-05 
0.0012287767927745938 -0.00069195489093399677 0.0012499999999999998 -0.00083424789271118111 0.00046513322149186701 0.011763508179049602 202.54509380567174 2.4603848099719818e-05 
0.00093376566973432846 -0.0012021766206546270 0.0024999999999999996 -0.00075803148273738787 0.00096856717140472335 0.010187964849409648 202.61067417870237 -2.5671395792284565e-05 
0.0012021766206546270 -0.00093376566973432846 0.0024999999999999996 -0.00096856717140932211 0.00075803148274191138 0.010187964849410713 202.61067417870237 -2.5671395792402852e-05 
0.00093414074684744616 -0.00066572979592714764 0.0024999999999999996 -0.00079191735991995468 0.00056450381294151830 0.010139746054095917 202.60994873245144 -2.1132750914527658e-05 
0.00093395320829088731 -0.00093395320829088731 0.0000000000000000 0.0000000000000000 0.0000000000000000 0.010000000000000002 202.47976915778563 0.0000000000000000 
0.00093376566973432846 -0.0012021766206546270 0.0012499999999999998 -0.00063806113168781884 0.00082827585293492447 0.011801002092329441 202.54560443363135 2.2431071026230025e-05 
0.0012021766206546270 -0.00093376566973432835 0.0012499999999999998 -0.00082827585293744805 0.00063806113168443613 0.011801002092328813 202.54560443363135 2.2431071026286346e-05 
0.00093414074684744616 -0.00066572979592714764 0.0012499999999999998 -0.00060898137963817536 0.00043369129678586031 0.011685070184314269 202.54447617973119 2.5911465362151537e-05 
0.00093395320829088731 -0.00093395320829088731 0.0024999999999999996 -0.00077818729730697272 0.00077818729730646749 0.010163846029135415 202.61031145557692 -2.7357393908278929e-05 
0.00093395320829088731 -0.00093395320829088731 0.0012499999999999998 -0.00062123665801756855 0.00062123665801367561 0.011733963838518342 202.54504030668124 2.8714330132162242e-05 
0.00062164896728019912 0.0000000000000000 0.0000000000000000 0.0000000000000000 0.0000000000000000 0.010000000000000000 202.47715218682444 0.0000000000000000 
0.00062164896728019912 0.0000000000000000 0.0024999999999999996 -0.00054351055080013530 6.0966265913266925e-15 0.010071855202861362 202.60926990153416 2.9561879861251403e-05 
0.00063057683410024882 -0.00031975235046014932 0.0000000000000000 0.0000000000000000 0.0000000000000000 0.010000000000000000 202.47768472623719 0.0000000000000000 
0.00031082448364009956 0.0000000000000000 0.0000000000000000 0.0000000000000000 0.0000000000000000 0.010000000000000004 202.47669124550274 0.0000000000000000 
0.00062164896728019912 0.0000000000000000 0.0012499999999999998 -0.00038811338878804743 -4.0829215185669792e-15 0.011579593071419033 202.54321104417932 -2.6513638083979743e-05 
0.00063057683410024882 -0.00031975235046014932 0.0024999999999999996 -0.00054961603630092467 0.00027753319415406332 0.010081329756920443 202.60938487173274 1.9244723377541526e-05 
0.00031082448364009956 0.0000000000000000 0.0024999999999999996 -0.00027274897084495734 7.9191898736741560e-15 0.010047025052849249 202.60917005545349 6.1475138408701794e-05 
0.00031528841705012441 -0.00031528841705012441 0.0000000000000000 0.0000000000000000 0.0000000000000000 0.010000000000000002 202.47718798586996 0.0000000000000000 
0.00063057683410024882 -0.00031975235046014932 0.0012499999999999998 -0.00039586709721435104 0.00020304930135265118 0.011592937615237190 202.54353479898495 -1.4225694231545850e-05 
0.00031082448364009956 0.0000000000000000 0.0012499999999999998 -0.00019357624081144212 -3.3787828482170067e-15 0.011547099731540337 202.54293065047810 -6.6086388095625953e-05 
0.00031528841705012441 -0.00031528841705012441 0.0024999999999999996 -0.00027595954006621705 0.00027595954006919509 0.010056169753189037 202.60927746359309 4.8879833688474041e-05 
0.00031528841705012441 -0.00031528841705012446 0.0012499999999999998 -0.00019740849815747690 0.00019740849815592536 0.011559063647924125 202.54323272473152 -4.9917598421819825e-05 
0.0012298938036811942 0.0000000000000000 0.0000000000000000 0.0000000000000000 0.0000000000000000 0.010000000000000000 202.47855741529628 0.0000000000000000 
0.0012298938036811942 0.0000000000000000 0.0024999999999999996 -0.0010257295532143313 4.3444371903485154e-15 0.010151180983994555 202.61014044772261 -2.0193271990950116e-05 
0.0012293352982278940 -0.00034597744546699838 0.0000000000000000 0.0000000000000000 0.0000000000000000 0.010000000000000002 202.47917370183407 0.0000000000000000 
0.00092577138548069666 0.0000000000000000 0.0000000000000000 0.0000000000000000 0.0000000000000000 0.0099999999999999985 202.47785480106035 0.0000000000000000 
0.0012298938036811942 0.0000000000000000 0.0012499999999999998 -0.00081808672187699827 -4.6228228417391850e-15 0.011707963332129851 202.54434893150943 2.1487029222253631e-05 
0.0012293352982278940 -0.00034597744546699838 0.0024999999999999996 -0.0010207517476597820 0.00028929260682962970 0.010157952514083949 202.61026903534710 -2.2483125184365937e-05 
0.00092577138548069666 0.0000000000000000 0.0024999999999999996 -0.00079744134038079492 8.4176010434469561e-15 0.010108833827093950 202.60970517462840 -2.6046719117300896e-06 
0.00092995606616407141 -0.00033286489796357382 0.0000000000000000 0.0000000000000000 0.0000000000000000 0.0099999999999999985 202.47842921403566 0.0000000000000000 
0.0012293352982278940 -0.00034597744546699838 0.0012499999999999998 -0.00082244984054435076 0.00023087391706555640 0.011722234869521345 202.54472136859059 2.3233205269977644e-05 
0.00092577138548069666 0.0000000000000000 0.0012499999999999998 -0.00059056080990029750 -3.0870254158731034e-15 0.011631886900660526 202.54377998784437 8.2864834342802612e-06 
0.00092995606616407141 -0.00033286489796357382 0.0024999999999999996 -0.00079804036850571094 0.00028476740730035252 0.010117483127905814 202.60982695353991 -8.7513884169316965e-06 
0.00092995606616407141 -0.00033286489796357382 0.0012499999999999998 -0.00059672408973878062 0.00021590050384194558 0.011646025477808282 202.54412808378780 1.4650671104075884e-05 
-0.00063950470092029863 0.00063950470092029852 0.0000000000000000 0.0000000000000000 0.0000000000000000 0.010000000000000000 202.47821726564990 0.0000000000000000 
-0.0012287767927745938 0.00069195489093399677 0.0000000000000000 0.0000000000000000 0.0000000000000000 0.010000000000000000 202.47978998837186 0.0000000000000000 
-0.00063950470092029863 0.00063950470092029852 0.0024999999999999996 0.00055187117058820340 -0.00055187117058428238 0.010105743408287009 202.60949984193127 -2.8396074466151937e-06 
-0.0012287767927745938 0.00069195489093399677 0.0024999999999999996 0.0010053537170649936 -0.00057056603784742322 0.010175140058236503 202.61039762297162 -2.5964035684289590e-05 
-0.00063057683410024882 0.00031975235046014926 0.0000000000000000 0.0000000000000000 0.0000000000000000 0.010000000000000005 202.47768472623719 0.0000000000000000 
-0.00093414074684744627 0.00066572979592714764 0.0000000000000000 0.0000000000000000 0.0000000000000000 0.010000000000000000 202.47900362701088 0.0000000000000000 
-0.0012293352982278940 0.00034597744546699838 0.0000000000000000 0.0000000000000000 0.0000000000000000 0.0099999999999999898 202.47917370183404 0.0000000000000000 
-0.00063950470092029863 0.00063950470092029852 0.0012499999999999998 0.00040730528650204860 -0.00040730528650798157 0.011629038110278458 202.54385855379059 1.0071056709332228e-05 
-0.0012287767927745938 0.00069195489093399677 0.0012499999999999998 0.00083424789271094757 -0.00046513322150420724 0.011763508179046303 202.54509380567174 2.4603848099864122e-05 
-0.00063057683410024882 0.00031975235046014926 0.0024999999999999996 0.00054961603628955345 -0.00027753319414044228 0.010081329756923670 202.60938487173269 1.9244723377613944e-05 
-0.00093414074684744627 0.00066572979592714764 0.0024999999999999996 0.00079191735991102682 -0.00056450381292796913 0.010139746054097742 202.60994873245141 -2.1132750914663878e-05 
-0.0012293352982278940 0.00034597744546699838 0.0024999999999999996 0.0010207517476502753 -0.00028929260681346999 0.010157952514086497 202.61026903534710 -2.2483125184376755e-05 
-0.00092995606616407141 0.00033286489796357382 0.0000000000000000 0.0000000000000000 0.0000000000000000 0.010000000000000002 202.47842921403563 0.0000000000000000 
-0.00063057683410024893 0.00031975235046014926 0.0012499999999999998 0.00039586709722134382 -0.00020304930136044819 0.011592937615235152 202.54353479898492 -1.4225694231403011e-05 
-0.00093414074684744627 0.00066572979592714764 0.0012499999999999998 0.00060898137963980297 -0.00043369129679382204 0.011685070184311702 202.54447617973113 2.5911465362371281e-05 
-0.0012293352982278940 0.00034597744546699838 0.0012499999999999998 0.00082244984054737394 -0.00023087391707626246 0.011722234869518252 202.54472136859056 2.3233205270029777e-05 
-0.00092995606616407141 0.00033286489796357382 0.0024999999999999996 0.00079804036849623035 -0.00028476740728669163 0.010117483127909143 202.60982695353988 -8.7513884168685316e-06 
-0.00092995606616407141 0.00033286489796357382 0.0012499999999999998 0.00059672408974334522 -0.00021590050385141213 0.011646025477805187 202.54412808378777 1.4650671104123762e-05 
0.0000000000000000 0.00062164896728019912 0.0000000000000000 0.0000000000000000 0.0000000000000000 0.010000000000000000 202.47715218682441 0.0000000000000000 
0.0000000000000000 0.00062164896728019912 0.0024999999999999996 -4.6398426204801997e-15 -0.00054351055078815682 0.010071855202861968 202.60926990153416 2.9561879861764451e-05 
0.0000000000000000 0.00031082448364009956 0.0000000000000000 0.0000000000000000 0.0000000000000000 0.010000000000000002 202.47669124550271 0.0000000000000000 
-0.00031975235046014932 0.00063057683410024882 0.0000000000000000 0.0000000000000000 0.0000000000000000 0.010000000000000000 202.47768472623716 0.0000000000000000 
0.0000000000000000 0.00062164896728019912 0.0012499999999999998 1.9963451706536666e-16 -0.00038811338879611649 0.011579593071417685 202.54321104417929 -2.6513638084382256e-05 
0.0000000000000000 0.00031082448364009956 0.0024999999999999996 -4.9035395125056251e-15 -0.00027274897083157443 0.010047025052849379 202.60917005545349 6.1475138408857160e-05 
-0.00031975235046014932 0.00063057683410024882 0.0024999999999999996 0.00027753319414390061 -0.00054961603628716506 0.010081329756921817 202.60938487173269 1.9244723377812414e-05 
-0.00031528841705012441 0.00031528841705012441 0.0000000000000000 0.0000000000000000 0.0000000000000000 0.010000000000000004 202.47718798586993 0.0000000000000000 
0.0000000000000000 0.00031082448364009956 0.0012499999999999998 1.6540102673898460e-15 -0.00019357624081881375 0.011547099731540117 202.54293065047810 -6.6086388095661460e-05 
-0.00031975235046014932 0.00063057683410024882 0.0012499999999999998 0.00020304930135817955 -0.00039586709722482546 0.011592937615235912 202.54353479898492 -1.4225694231605740e-05 
-0.00031528841705012441 0.00031528841705012441 0.0024999999999999996 0.00027595954005880463 -0.00027595954005440283 0.010056169753189577 202.60927746359306 4.8879833688416110e-05 
-0.00031528841705012446 0.00031528841705012441 0.0012499999999999998 0.00019740849816150187 -0.00019740849816433955 0.011559063647924011 202.54323272473150 -4.9917598421478369e-05 
-0.00069195489093399677 0.0012287767927745938 0.0000000000000000 0.0000000000000000 0.0000000000000000 0.010000000000000000 202.47978998837189 0.0000000000000000 
-0.0011755764485346602 0.0011755764485346602 0.0000000000000000 0.0000000000000000 0.0000000000000000 0.010000000000000000 202.48127938874870 0.0000000000000000 
-0.00069195489093399677 0.0012287767927745938 0.0024999999999999996 0.00057056603785249848 -0.0010053537170629499 0.010175140058234694 202.61039762297165 -2.5964035683987545e-05 
-0.0011755764485346602 0.0011755764485346602 0.0024999999999999996 0.00092827515749029533 -0.00092827515748448671 0.010199944079644240 202.61095073443300 -2.1141644861626981e-05 
-0.00066572979592714764 0.00093414074684744616 0.0000000000000000 0.0000000000000000 0.0000000000000000 0.010000000000000004 202.47900362701091 0.0000000000000000 
-0.00093376566973432846 0.0012021766206546270 0.0000000000000000 0.0000000000000000 0.0000000000000000 0.0099999999999999985 202.48053468856028 0.0000000000000000 
-0.0012021766206546270 0.00093376566973432846 0.0000000000000000 0.0000000000000000 0.0000000000000000 0.010000000000000007 202.48053468856028 0.0000000000000000 