# For a description of the Tecplot format see the Tecplot User's guide.
#
Variables=x,y,z,u,v,w,p,T
Zone f=fepoint, n=16513, e=15360, et=brick, c=black
-0.00117558 -0.00117558 0.00000 0.0000000000000000 0.0000000000000000 0.010000000000000000 202.93292055916220 0.0000000000000000 
-0.00069195489093399677 -0.0012287767927745938 0.0000000000000000 0.0000000000000000 0.0000000000000000 0.010000000000000000 202.93145218351737 0.0000000000000000 
-0.00063950470092029852 -0.00063950470092029852 0.0000000000000000 0.0000000000000000 0.0000000000000000 0.010000000000000000 202.92964796161638 0.0000000000000000 
-0.0012287767927745938 -0.00069195489093399677 0.0000000000000000 0.0000000000000000 0.0000000000000000 0.010000000000000000 202.93145218351728 0.0000000000000000 
-0.0011755764485346602 -0.0011755764485346602 0.0024999999999999996 0.00064673964219342161 0.00064673964218599190 0.014004011109688443 202.76886041375806 2.5374979573856402e-05 
-0.00069195489093399677 -0.0012287767927745938 0.0024999999999999996 0.00036702458619318782 0.00064669144809965549 0.013860148743352174 202.76854618957904 2.2505433835525317e-05 
-0.00063950470092029852 -0.00063950470092029852 0.0024999999999999996 0.00031302085067801290 0.00031302085066176998 0.013642196257192023 202.76800431582839 -2.9234238085193177e-05 
-0.0012287767927745938 -0.00069195489093399677 0.0024999999999999996 0.00064669144811485275 0.00036702458618270446 0.013860148743350013 202.76854618957915 2.2505433835847213e-05 
-0.00093376566973432846 -0.0012021766206546270 0.0000000000000000 0.0000000000000000 0.0000000000000000 0.0099999999999999967 202.93218637133978 0.0000000000000000 
-0.00066572979592714764 -0.00093414074684744616 0.0000000000000000 0.0000000000000000 0.0000000000000000 0.010000000000000000 202.93055007256686 0.0000000000000000 
-0.00093414074684744616 -0.00066572979592714764 0.0000000000000000 0.0000000000000000 0.0000000000000000 0.010000000000000004 202.93055007256683 0.0000000000000000 
-0.0012021766206546270 -0.00093376566973432846 0.0000000000000000 0.0000000000000000 0.0000000000000000 0.010000000000000000 202.93218637133975 0.0000000000000000 
-0.0011755764485346602 -0.0011755764485346602 0.0012499999999999998 0.00032747348899496599 0.00032747348898708233 0.0098356039457564975 202.85089048646012 3.0301296508004027e-06 
-0.00069195489093399677 -0.0012287767927745938 0.0012499999999999998 0.00017485094301243449 0.00031990710566353546 0.0097755519069747665 202.84999918654819 -1.1185472010148891e-06 
-0.00063950470092029852 -0.00063950470092029852 0.0012499999999999998 0.00014290350120418425 0.00014290350119731385 0.0096992767131008246 202.84882613872239 0.00010283998214945304 
-0.0012287767927745938 -0.00069195489093399677 0.0012499999999999998 0.00031990710567135315 0.00017485094301021310 0.0097755519069722945 202.84999918654822 -1.1185472016387617e-06 
-0.00093376566973432846 -0.0012021766206546270 0.0024999999999999996 0.00050410609278637596 0.00064492316780477533 0.013921490724712427 202.76870330166855 2.2447192965687947e-05 
-0.00066572979592714764 -0.00093414074684744616 0.0024999999999999996 0.00033797302733929271 0.00047376901773880080 0.013734451621178987 202.76827525270372 -9.7875749566990363e-06 
-0.00093414074684744616 -0.00066572979592714764 0.0024999999999999996 0.00047376901775535781 0.00033797302731835210 0.013734451621179119 202.76827525270377 -9.7875749565349203e-06 
-0.0012021766206546270 -0.00093376566973432846 0.0024999999999999996 0.00064492316781946052 0.00050410609277427225 0.013921490724710581 202.76870330166861 2.2447192965818983e-05 
-0.00093395320829088731 -0.00093395320829088731 0.0000000000000000 0.0000000000000000 0.0000000000000000 0.010000000000000002 202.93136822195331 0.0000000000000000 
-0.00093376566973432835 -0.0012021766206546270 0.0012499999999999998 0.00024548165203481739 0.00032355488840339874 0.0097996949115459944 202.85044483650415 3.5606857443159230e-06 
-0.00066572979592714764 -0.00093414074684744605 0.0012499999999999998 0.00015639937866095108 0.00022043145989576737 0.0097289914458249110 202.84941266263530 5.8697193155776805e-05 
-0.00093414074684744616 -0.00066572979592714764 0.0012499999999999998 0.00022043145990190802 0.00015639937865906671 0.0097289914458237176 202.84941266263530 5.8697193155302649e-05 
-0.0012021766206546270 -0.00093376566973432835 0.0012499999999999998 0.00032355488840911362 0.00024548165202869149 0.0097996949115456249 202.85044483650418 3.5606857440698485e-06 
-0.00093395320829088731 -0.00093395320829088731 0.0024999999999999996 0.00048745967235828378 0.00048745967234154033 0.013814673589277357 202.76848927718618 3.2203048848441194e-06 
-0.00093395320829088731 -0.00093395320829088731 0.0012499999999999998 0.00023077906286154211 0.00023077906285582465 0.0097573281195882794 202.84992874956973 3.4660466140671415e-05 
0.0000000000000000 -0.0012298938036811942 0.0000000000000000 0.0000000000000000 0.0000000000000000 0.010000000000000000 202.93026108475539 0.0000000000000000 
0.0000000000000000 -0.00062164896728019912 0.0000000000000000 0.0000000000000000 0.0000000000000000 0.010000000000000000 202.92848092796407 0.0000000000000000 
0.0000000000000000 -0.0012298938036811942 0.0024999999999999996 2.1576754766439621e-15 0.00062754360319989373 0.013770904118469167 202.76834630052943 2.9042966341098240e-05 
0.0000000000000000 -0.00062164896728019912 0.0024999999999999996 5.1773584286662323e-15 0.00029399019991584733 0.013563767077791221 202.76775340707997 -2.6365844971622201e-05 
-0.00034597744546699838 -0.0012293352982278940 0.0000000000000000 0.0000000000000000 0.0000000000000000 0.010000000000000002 202.93085663413638 0.0000000000000000 
0.0000000000000000 -0.00092577138548069666 0.0000000000000000 0.0000000000000000 0.0000000000000000 0.010000000000000002 202.92937100635973 0.0000000000000000 
-0.00031975235046014926 -0.00063057683410024882 0.0000000000000000 0.0000000000000000 0.0000000000000000 0.0099999999999999985 202.92906444479024 0.0000000000000000 
0.0000000000000000 -0.0012298938036811942 0.0012499999999999998 1.6735901340267291e-15 0.00030566235146747633 0.0097419405900527872 202.84930369264242 -3.3512230269515234e-05 
0.0000000000000000 -0.00062164896728019912 0.0012499999999999998 7.0446111830205923e-15 0.00013320664121732549 0.0096749314972012848 202.84811716752205 6.4946837472851929e-05 
-0.00034597744546699838 -0.0012293352982278940 0.0024999999999999996 0.00017960243414896556 0.00063230351811721598 0.013793301307930987 202.76844624505424 2.5682451073918135e-05 
0.0000000000000000 -0.00092577138548069666 0.0024999999999999996 5.7271298311753180e-15 0.00045403905744058380 0.013649377808802503 202.76804985380471 -1.0753317005605539e-05 
-0.00031975235046014926 -0.00063057683410024882 0.0024999999999999996 0.00015269991790152289 0.00030097785464239636 0.013584352590350629 202.76787886145419 -2.9774163096541043e-05 
-0.00033286489796357382 -0.00092995606616407141 0.0000000000000000 0.0000000000000000 0.0000000000000000 0.0099999999999999985 202.92996053946331 0.0000000000000000 
-0.00034597744546699838 -0.0012293352982278940 0.0012499999999999998 8.6159571533250400e-05 0.00030942751728336331 0.0097504031019754571 202.84965143959531 -1.9446340023954532e-05 
0.0000000000000000 -0.00092577138548069677 0.0012499999999999998 1.2782429841358684e-15 0.00020845858787574514 0.0097003423694232548 202.84871043008224 3.7908833302776273e-05 
-0.00031975235046014926 -0.00063057683410024882 0.0012499999999999998 7.1874151910261629e-05 0.00013663925812933426 0.0096814216939335365 202.84847165312223 8.7085983291420587e-05 
-0.00033286489796357382 -0.00092995606616407141 0.0024999999999999996 0.00016496517311651406 0.00046020373421096612 0.013671419195956514 202.76816255325423 -1.2381352303194669e-05 
-0.00033286489796357382 -0.00092995606616407141 0.0012499999999999998 7.7987986180859113e-05 0.00021192323508125113 0.0097078456924860421 202.84906154635877 5.1036864605879808e-05 
-0.00062164896728019912 0.0000000000000000 0.0000000000000000 0.0000000000000000 0.0000000000000000 0.010000000000000000 202.92848092796396 0.0000000000000000 
-0.0012298938036811942 0.0000000000000000 0.0000000000000000 0.0000000000000000 0.0000000000000000 0.010000000000000000 202.93026108475541 0.0000000000000000 
-0.00062164896728019912 0.0000000000000000 0.0024999999999999996 0.00029399019993236867 -9.0202150490188572e-15 0.013563767077792941 202.76775340707997 -2.6365844971010793e-05 
-0.0012298938036811942 0.0000000000000000 0.0024999999999999996 0.00062754360321650370 -1.3065148652957974e-14 0.013770904118469804 202.76834630052943 2.9042966341895240e-05 
-0.00063057683410024882 -0.00031975235046014926 0.0000000000000000 0.0000000000000000 0.0000000000000000 0.010000000000000002 202.92906444479019 0.0000000000000000 
-0.00092577138548069666 0.0000000000000000 0.0000000000000000 0.0000000000000000 0.0000000000000000 0.010000000000000002 202.92937100635970 0.0000000000000000 
-0.0012293352982278940 -0.00034597744546699838 0.0000000000000000 0.0000000000000000 0.0000000000000000 0.010000000000000000 202.93085663413635 0.0000000000000000 
-0.00062164896728019912 0.0000000000000000 0.0012499999999999998 0.00013320664122209555 -2.8175562674033719e-15 0.0096749314971988042 202.84811716752199 6.4946837472499035e-05 
-0.0012298938036811942 0.0000000000000000 0.0012499999999999998 0.00030566235147038849 -4.7054525061269520e-15 0.0097419405900505025 202.84930369264242 -3.3512230270510254e-05 
-0.00063057683410024882 -0.00031975235046014926 0.0024999999999999996 0.00030097785465577683 0.00015269991788682594 0.013584352590351010 202.76787886145419 -2.9774163096251365e-05 
-0.00092577138548069666 0.0000000000000000 0.0024999999999999996 0.00045403905745635250 -1.0646552475560324e-14 0.013649377808802279 202.76804985380471 -1.0753317004919988e-05 
-0.0012293352982278940 -0.00034597744546699838 0.0024999999999999996 0.00063230351813623321 0.00017960243413513881 0.013793301307932049 202.76844624505429 2.5682451074543425e-05 
-0.00092995606616407141 -0.00033286489796357382 0.0000000000000000 0.0000000000000000 0.0000000000000000 0.010000000000000000 202.92996053946328 0.0000000000000000 
-0.00063057683410024882 -0.00031975235046014926 0.0012499999999999998 0.00013663925812984042 7.1874151903969421e-05 0.0096814216939320047 202.84847165312220 8.7085983291016912e-05 
-0.00092577138548069666 0.0000000000000000 0.0012499999999999998 0.00020845858788094782 -3.5597869105504647e-15 0.0097003423694215236 202.84871043008221 3.7908833301846874e-05 
-0.0012293352982278940 -0.00034597744546699838 0.0012499999999999998 0.00030942751729220335 8.6159571530375706e-05 0.0097504031019712851 202.84965143959533 -1.9446340024968373e-05 
-0.00092995606616407141 -0.00033286489796357382 0.0024999999999999996 0.00046020373422864740 0.00016496517310171259 0.013671419195958696 202.76816255325423 -1.2381352302748859e-05 
-0.00092995606616407141 -0.00033286489796357382 0.0012499999999999998 0.00021192323508597630 7.7987986177124335e-05 0.0097078456924837176 202.84906154635874 5.1036864604983736e-05 
0.0000000000000000 0.0000000000000000 0.0000000000000000 0.0000000000000000 0.0000000000000000 0.010000000000000000 202.92748522281198 0.0000000000000000 
0.0000000000000000 0.0000000000000000 0.0024999999999999996 1.9538874764693607e-15 -1.4129119871709939e-14 0.013495230823078288 202.76752389407011 -1.3082438360114173e-05 
0.0000000000000000 -0.00031082448364009956 0.0000000000000000 0.0000000000000000 0.0000000000000000 0.010000000000000004 202.92798307538803 0.0000000000000000 
-0.00031082448364009956 0.0000000000000000 0.0000000000000000 0.0000000000000000 0.0000000000000000 0.010000000000000002 202.92798307538797 0.0000000000000000 
0.0000000000000000 0.0000000000000000 0.0012499999999999998 5.3364053770488764e-15 -7.6734717842692522e-15 0.0096551799767665772 202.84750455844105 -3.5152564786895981e-05 
0.0000000000000000 -0.00031082448364009956 0.0024999999999999996 3.6249219870651134e-15 0.00014344749102425690 0.013512314817947284 202.76763865057507 -1.9553731845898008e-05 
-0.00031082448364009956 0.0000000000000000 0.0024999999999999996 0.00014344749103971106 -1.4279830510659220e-14 0.013512314817947022 202.76763865057507 -1.9553731845477351e-05 
-0.00031528841705012441 -0.00031528841705012441 0.0000000000000000 0.0000000000000000 0.0000000000000000 0.010000000000000005 202.92852376008912 0.0000000000000000 
0.0000000000000000 -0.00031082448364009956 0.0012499999999999998 6.7103185902312467e-15 6.6952242793090082e-05 0.0096602268514585556 202.84781086298153 7.3198839570419816e-06 
-0.00031082448364009956 0.0000000000000000 0.0012499999999999998 6.6952242801571890e-05 -3.7385916033155993e-15 0.0096602268514572476 202.84781086298150 7.3198839571808620e-06 
-0.00031528841705012441 -0.00031528841705012441 0.0024999999999999996 0.00014682180899716822 0.00014682180898010626 0.013530522613296032 202.76775875601462 -2.5341289228376255e-05 
-0.00031528841705012441 -0.00031528841705012441 0.0012499999999999998 6.8764992191084481e-05 6.8764992183964580e-05 0.0096657229450245550 202.84814125805187 4.4257352753274622e-05 
0.00069195489093399677 -0.0012287767927745938 0.0000000000000000 0.0000000000000000 0.0000000000000000 0.010000000000000000 202.93145218351756 0.0000000000000000 
0.00063950470092029852 -0.00063950470092029863 0.0000000000000000 0.0000000000000000 0.0000000000000000 0.010000000000000000 202.92964796161638 0.0000000000000000 
0.00069195489093399677 -0.0012287767927745938 0.0024999999999999996 -0.00036702458619261661 0.00064669144809437727 0.013860148743353715 202.76854618957904 2.2505433835469748e-05 
0.00063950470092029852 -0.00063950470092029863 0.0024999999999999996 -0.00031302085067060786 0.00031302085065837085 0.013642196257189688 202.76800431582839 -2.9234238085229003e-05 
0.00034597744546699838 -0.0012293352982278940 0.0000000000000000 0.0000000000000000 0.0000000000000000 0.0099999999999999950 202.93085663413649 0.0000000000000000 
0.00066572979592714764 -0.00093414074684744627 0.0000000000000000 0.0000000000000000 0.0000000000000000 0.0099999999999999950 202.93055007256697 0.0000000000000000 
0.00031975235046014926 -0.00063057683410024882 0.0000000000000000 0.0000000000000000 0.0000000000000000 0.010000000000000007 202.92906444479024 0.0000000000000000 
0.00069195489093399677 -0.0012287767927745938 0.0012499999999999998 -0.00017485094301387971 0.00031990710565503667 0.0097755519069772593 202.84999918654830 -1.1185472008478517e-06 
0.00063950470092029852 -0.00063950470092029863 0.0012499999999999998 -0.00014290350119045757 0.00014290350119067403 0.0096992767131033938 202.84882613872239 0.00010283998214958895 
0.00034597744546699838 -0.0012293352982278940 0.0024999999999999996 -0.00017960243414126201 0.00063230351811132779 0.013793301307931966 202.76844624505424 2.5682451073860141e-05 
0.00066572979592714764 -0.00093414074684744627 0.0024999999999999996 -0.00033797302732595133 0.00047376901773119327 0.013734451621178909 202.76827525270372 -9.7875749567298378e-06 
0.00031975235046014926 -0.00063057683410024882 0.0024999999999999996 -0.00015269991789251084 0.00030097785463839208 0.013584352590348006 202.76787886145419 -2.9774163096690470e-05 
0.00033286489796357382 -0.00092995606616407152 0.0000000000000000 0.0000000000000000 0.0000000000000000 0.0099999999999999950 202.92996053946337 0.0000000000000000 
0.00034597744546699838 -0.0012293352982278940 0.0012499999999999998 -8.6159571534367684e-05 0.00030942751728119328 0.0097504031019763817 202.84965143959536 -1.9446340023777726e-05 
0.00066572979592714764 -0.00093414074684744627 0.0012499999999999998 -0.00015639937865633352 0.00022043145988936776 0.0097289914458283371 202.84941266263536 5.8697193155996816e-05 
0.00031975235046014926 -0.00063057683410024893 0.0012499999999999998 -7.1874151901960191e-05 0.00013663925812001305 0.0096814216939353354 202.84847165312223 8.7085983291482726e-05 
0.00033286489796357382 -0.00092995606616407152 0.0024999999999999996 -0.00016496517310499151 0.00046020373421049092 0.013671419195956538 202.76816255325423 -1.2381352303272971e-05 
0.00033286489796357382 -0.00092995606616407141 0.0012499999999999998 -7.7987986178338031e-05 0.00021192323507697965 0.0097078456924870032 202.84906154635877 5.1036864606076483e-05 
0.0011755764485346602 -0.0011755764485346602 0.0000000000000000 0.0000000000000000 0.0000000000000000 0.010000000000000000 202.93292055916260 0.0000000000000000 
0.0012287767927745938 -0.00069195489093399677 0.0000000000000000 0.0000000000000000 0.0000000000000000 0.010000000000000000 202.93145218351734 0.0000000000000000 
0.0011755764485346602 -0.0011755764485346602 0.0024999999999999996 -0.00064673964219227214 0.00064673964217942283 0.014004011109692014 202.76886041375809 2.5374979573820213e-05 
0.0012287767927745938 -0.00069195489093399677 0.0024999999999999996 -0.00064669144810756453 0.00036702458618213612 0.013860148743353591 202.76854618957907 2.2505433835846244e-05 
0.00093376566973432846 -0.0012021766206546270 0.0000000000000000 0.0000000000000000 0.0000000000000000 0.010000000000000009 202.93218637134009 0.0000000000000000 
0.0012021766206546270 -0.00093376566973432846 0.0000000000000000 0.0000000000000000 0.0000000000000000 0.0099999999999999985 202.93218637133998 0.0000000000000000 
0.00093414074684744616 -0.00066572979592714764 0.0000000000000000 0.0000000000000000 0.0000000000000000 0.010000000000000005 202.93055007256686 0.0000000000000000 
0.0011755764485346602 -0.0011755764485346602 0.0012499999999999998 -0.00032747348899435716 0.00032747348898044468 0.0098356039457612593 202.85089048646034 3.0301296509022237e-06 
0.0012287767927745938 -0.00069195489093399677 0.0012499999999999998 -0.00031990710566633481 0.00017485094299515155 0.0097755519069762618 202.84999918654819 -1.1185472015959599e-06 
0.00093376566973432846 -0.0012021766206546270 0.0024999999999999996 -0.00050410609277985513 0.00064492316779726495 0.013921490724714502 202.76870330166855 2.2447192965651633e-05 
0.0012021766206546270 -0.00093376566973432846 0.0024999999999999996 -0.00064492316781017129 0.00050410609276929934 0.013921490724713877 202.76870330166855 2.2447192965792905e-05 
0.00093414074684744616 -0.00066572979592714764 0.0024999999999999996 -0.00047376901774194650 0.00033797302731723830 0.013734451621178466 202.76827525270375 -9.7875749564634679e-06 
0.00093395320829088731 -0.00093395320829088731 0.0000000000000000 0.0000000000000000 0.0000000000000000 0.010000000000000002 202.93136822195348 0.0000000000000000 
0.00093376566973432846 -0.0012021766206546270 0.0012499999999999998 -0.00024548165203402316 0.00032355488839713937 0.0097996949115505775 202.85044483650432 3.5606857444026240e-06 
0.0012021766206546270 -0.00093376566973432835 0.0012499999999999998 -0.00032355488840622097 0.00024548165202294549 0.0097996949115508325 202.85044483650427 3.5606857441761011e-06 
0.00093414074684744616 -0.00066572979592714764 0.0012499999999999998 -0.00022043145989168820 0.00015639937864224233 0.0097289914458273015 202.84941266263530 5.8697193155449965e-05 
0.00093395320829088731 -0.00093395320829088731 0.0024999999999999996 -0.00048745967234992377 0.00048745967233540473 0.013814673589278258 202.76848927718615 3.2203048848568948e-06 
0.00093395320829088731 -0.00093395320829088731 0.0012499999999999998 -0.00023077906285761497 0.00023077906284935226 0.0097573281195931783 202.84992874956981 3.4660466140820689e-05 
0.00062164896728019912 0.0000000000000000 0.0000000000000000 0.0000000000000000 0.0000000000000000 0.010000000000000000 202.92848092796388 0.0000000000000000 
0.00062164896728019912 0.0000000000000000 0.0024999999999999996 -0.00029399019992720955 -1.4675453352894037e-14 0.013563767077787418 202.76775340707994 -2.6365844970825977e-05 
0.00063057683410024882 -0.00031975235046014932 0.0000000000000000 0.0000000000000000 0.0000000000000000 0.010000000000000000 202.92906444479013 0.0000000000000000 
0.00031082448364009956 0.0000000000000000 0.0000000000000000 0.0000000000000000 0.0000000000000000 0.010000000000000004 202.92798307538794 0.0000000000000000 
0.00062164896728019912 0.0000000000000000 0.0012499999999999998 -0.00013320664121273349 -1.1700470920587001e-14 0.0096749314971996854 202.84811716752191 6.4946837472213862e-05 
0.00063057683410024882 -0.00031975235046014932 0.0024999999999999996 -0.00030097785464668466 0.00015269991788306180 0.013584352590345744 202.76787886145416 -2.9774163096262790e-05 
0.00031082448364009956 0.0000000000000000 0.0024999999999999996 -0.00014344749103073086 -1.1141601454977634e-14 0.013512314817944484 202.76763865057501 -1.9553731845528959e-05 
0.00031528841705012441 -0.00031528841705012441 0.0000000000000000 0.0000000000000000 0.0000000000000000 0.010000000000000002 202.92852376008909 0.0000000000000000 
0.00063057683410024882 -0.00031975235046014932 0.0012499999999999998 -0.00013663925811886336 7.1874151897643616e-05 0.0096814216939338990 202.84847165312215 8.7085983290923142e-05 
0.00031082448364009956 0.0000000000000000 0.0012499999999999998 -6.6952242791878025e-05 -1.7350116780260720e-14 0.0096602268514575686 202.84781086298148 7.3198839569922091e-06 
0.00031528841705012441 -0.00031528841705012441 0.0024999999999999996 -0.00014682180898822802 0.00014682180897857713 0.013530522613292855 202.76775875601462 -2.5341289228593969e-05 
0.00031528841705012441 -0.00031528841705012446 0.0012499999999999998 -6.8764992178439011e-05 6.8764992176335754e-05 0.0096657229450252732 202.84814125805184 4.4257352753133676e-05 
0.0012298938036811942 0.0000000000000000 0.0000000000000000 0.0000000000000000 0.0000000000000000 0.010000000000000000 202.93026108475516 0.0000000000000000 
0.0012298938036811942 0.0000000000000000 0.0024999999999999996 -0.00062754360321306104 -1.4028173982400807e-14 0.013770904118466135 202.76834630052940 2.9042966342207463e-05 
0.0012293352982278940 -0.00034597744546699838 0.0000000000000000 0.0000000000000000 0.0000000000000000 0.010000000000000002 202.93085663413626 0.0000000000000000 
0.00092577138548069666 0.0000000000000000 0.0000000000000000 0.0000000000000000 0.0000000000000000 0.0099999999999999985 202.92937100635953 0.0000000000000000 
0.0012298938036811942 0.0000000000000000 0.0012499999999999998 -0.00030566235146220071 -1.0319432295102909e-14 0.0097419405900513525 202.84930369264228 -3.3512230270679871e-05 
0.0012293352982278940 -0.00034597744546699838 0.0024999999999999996 -0.00063230351812107531 0.00017960243413695165 0.013793301307931546 202.76844624505424 2.5682451074656830e-05 
0.00092577138548069666 0.0000000000000000 0.0024999999999999996 -0.00045403905744723501 -1.4226741727972979e-14 0.013649377808795982 202.76804985380465 -1.0753317004491718e-05 
0.00092995606616407141 -0.00033286489796357382 0.0000000000000000 0.0000000000000000 0.0000000000000000 0.0099999999999999985 202.92996053946320 0.0000000000000000 
0.0012293352982278940 -0.00034597744546699838 0.0012499999999999998 -0.00030942751727901788 8.6159571522721997e-05 0.0097504031019743833 202.84965143959525 -1.9446340024999134e-05 
0.00092577138548069666 0.0000000000000000 0.0012499999999999998 -0.00020845858787092424 -5.1053557777022231e-15 0.0097003423694217595 202.84871043008209 3.7908833301625175e-05 
0.00092995606616407141 -0.00033286489796357382 0.0024999999999999996 -0.00046020373421831013 0.00016496517309951420 0.013671419195955790 202.76816255325420 -1.2381352302536587e-05 
0.00092995606616407141 -0.00033286489796357382 0.0012499999999999998 -0.00021192323507379971 7.7987986170532277e-05 0.0097078456924847845 202.84906154635868 5.1036864604995154e-05 
-0.00063950470092029863 0.00063950470092029852 0.0000000000000000 0.0000000000000000 0.0000000000000000 0.010000000000000000 202.92964796161627 0.0000000000000000 
-0.0012287767927745938 0.00069195489093399677 0.0000000000000000 0.0000000000000000 0.0000000000000000 0.010000000000000000 202.93145218351745 0.0000000000000000 
-0.00063950470092029863 0.00063950470092029852 0.0024999999999999996 0.00031302085067265808 -0.00031302085068668869 0.013642196257192225 202.76800431582848 -2.9234238085190911e-05 
-0.0012287767927745938 0.00069195489093399677 0.0024999999999999996 0.00064669144810352241 -0.00036702458619825972 0.013860148743352296 202.76854618957904 2.2505433835903859e-05 
-0.00063057683410024882 0.00031975235046014926 0.0000000000000000 0.0000000000000000 0.0000000000000000 0.010000000000000005 202.92906444479013 0.0000000000000000 
-0.00093414074684744627 0.00066572979592714764 0.0000000000000000 0.0000000000000000 0.0000000000000000 0.010000000000000000 202.93055007256686 0.0000000000000000 
-0.0012293352982278940 0.00034597744546699838 0.0000000000000000 0.0000000000000000 0.0000000000000000 0.0099999999999999898 202.93085663413643 0.0000000000000000 
-0.00063950470092029863 0.00063950470092029852 0.0012499999999999998 0.00014290350119904719 -0.00014290350120733765 0.0096992767131014752 202.84882613872236 0.00010283998214968318 
-0.0012287767927745938 0.00069195489093399677 0.0012499999999999998 0.00031990710566320705 -0.00017485094301489184 0.0097755519069760068 202.84999918654825 -1.1185472013715372e-06 
-0.00063057683410024882 0.00031975235046014926 0.0024999999999999996 0.00030097785465438574 -0.00015269991790992676 0.013584352590351284 202.76787886145422 -2.9774163096124235e-05 
-0.00093414074684744627 0.00066572979592714764 0.0024999999999999996 0.00047376901774566103 -0.00033797302734736161 0.013734451621180812 202.76827525270375 -9.7875749564711505e-06 
-0.0012293352982278940 0.00034597744546699838 0.0024999999999999996 0.00063230351812673040 -0.00017960243415396170 0.013793301307932005 202.76844624505424 2.5682451074582579e-05 
-0.00092995606616407141 0.00033286489796357382 0.0000000000000000 0.0000000000000000 0.0000000000000000 0.010000000000000002 202.92996053946328 0.0000000000000000 
-0.00063057683410024893 0.00031975235046014926 0.0012499999999999998 0.00013663925812855353 -7.1874151911002871e-05 0.0096814216939322875 202.84847165312217 8.7085983291416765e-05 
-0.00093414074684744627 0.00066572979592714764 0.0012499999999999998 0.00022043145989607510 -0.00015639937866431737 0.0097289914458261583 202.84941266263530 5.8697193155526510e-05 
-0.0012293352982278940 0.00034597744546699838 0.0012499999999999998 0.00030942751728465899 -8.6159571538557990e-05 0.0097504031019743035 202.84965143959533 -1.9446340024549661e-05 
-0.00092995606616407141 0.00033286489796357382 0.0024999999999999996 0.00046020373422189093 -0.00016496517312437724 0.013671419195959664 202.76816255325423 -1.2381352302635562e-05 
-0.00092995606616407141 0.00033286489796357382 0.0012499999999999998 0.00021192323508219100 -7.7987986182989963e-05 0.0097078456924855581 202.84906154635874 5.1036864605359879e-05 
0.0000000000000000 0.00062164896728019912 0.0000000000000000 0.0000000000000000 0.0000000000000000 0.010000000000000000 202.92848092796393 0.0000000000000000 
0.0000000000000000 0.00062164896728019912 0.0024999999999999996 -4.3749272524292157e-16 -0.00029399019994533356 0.013563767077790214 202.76775340707997 -2.6365844971221219e-05 
0.0000000000000000 0.00031082448364009956 0.0000000000000000 0.0000000000000000 0.0000000000000000 0.010000000000000002 202.92798307538794 0.0000000000000000 
-0.00031975235046014932 0.00063057683410024882 0.0000000000000000 0.0000000000000000 0.0000000000000000 0.010000000000000000 202.92906444479010 0.0000000000000000 
0.0000000000000000 0.00062164896728019912 0.0012499999999999998 2.2206831443202688e-15 -0.00013320664122629865 0.0096749314971986723 202.84811716752193 6.4946837473267707e-05 
0.0000000000000000 0.00031082448364009956 0.0024999999999999996 2.3360536105245119e-15 -0.00014344749104794034 0.013512314817944923 202.76763865057504 -1.9553731845360115e-05 
-0.00031975235046014932 0.00063057683410024882 0.0024999999999999996 0.00015269991789646054 -0.00030097785466584544 0.013584352590349727 202.76787886145422 -2.9774163096423516e-05 
-0.00031528841705012441 0.00031528841705012441 0.0000000000000000 0.0000000000000000 0.0000000000000000 0.010000000000000004 202.92852376008904 0.0000000000000000 
0.0000000000000000 0.00031082448364009956 0.0012499999999999998 1.6197054816732821e-15 -6.6952242807421472e-05 0.0096602268514567238 202.84781086298148 7.3198839576516480e-06 
-0.00031975235046014932 0.00063057683410024882 0.0012499999999999998 7.1874151907887389e-05 -0.00013663925813357699 0.0096814216939318659 202.84847165312215 8.7085983291785719e-05 
-0.00031528841705012441 0.00031528841705012441 0.0024999999999999996 0.00014682180899455534 -0.00014682180900578925 0.013530522613295473 202.76775875601464 -2.5341289228101576e-05 
-0.00031528841705012446 0.00031528841705012441 0.0012499999999999998 6.8764992188597701e-05 -6.8764992191037712e-05 0.0096657229450234829 202.84814125805184 4.4257352753780416e-05 
-0.00069195489093399677 0.0012287767927745938 0.0000000000000000 0.0000000000000000 0.0000000000000000 0.010000000000000000 202.93145218351745 0.0000000000000000 
-0.0011755764485346602 0.0011755764485346602 0.0000000000000000 0.0000000000000000 0.0000000000000000 0.010000000000000000 202.93292055916254 0.0000000000000000 
-0.00069195489093399677 0.0012287767927745938 0.0024999999999999996 0.00036702458618885752 -0.00064669144811302186 0.013860148743351083 202.76854618957904 2.2505433835625379e-05 
-0.0011755764485346602 0.0011755764485346602 0.0024999999999999996 0.00064673964219522583 -0.00064673964220076838 0.014004011109686288 202.76886041375795 2.5374979573967387e-05 
-0.00066572979592714764 0.00093414074684744616 0.0000000000000000 0.0000000000000000 0.0000000000000000 0.010000000000000004 202.93055007256686 0.0000000000000000 
-0.00093376566973432846 0.0012021766206546270 0.0000000000000000 0.0000000000000000 0.0000000000000000 0.0099999999999999985 202.93218637133998 0.0000000000000000 
-0.0012021766206546270 0.00093376566973432846 0.0000000000000000 0.0000000000000000 0.0000000000000000 0.010000000000000007 202.93218637133998 0.0000000000000000 