# For a description of the Tecplot format see the Tecplot User's guide.
#
Variables=x,y,z,u,v,w,p,T
Zone f=fepoint, n=16513, e=15360, et=brick, c=black
-0.00117558 -0.00117558 0.00000 0.0000000000000000 0.0000000000000000 0.010000000000000000 0.0000000000000000 0.0000000000000000 
-0.00069195489093399677 -0.0012287767927745938 0.0000000000000000 0.0000000000000000 0.0000000000000000 0.010000000000000000 0.0000000000000000 0.0000000000000000 
-0.00063950470092029852 -0.00063950470092029852 0.0000000000000000 0.0000000000000000 0.0000000000000000 0.010000000000000000 0.0000000000000000 0.0000000000000000 
-0.0012287767927745938 -0.00069195489093399677 0.0000000000000000 0.0000000000000000 0.0000000000000000 0.010000000000000000 0.0000000000000000 0.0000000000000000 
-0.0011755764485346602 -0.0011755764485346602 0.0024999999999999996 0.0000000000000000 0.0000000000000000 0.0000000000000000 0.0000000000000000 0.0000000000000000 
-0.00069195489093399677 -0.0012287767927745938 0.0024999999999999996 0.0000000000000000 0.0000000000000000 0.0000000000000000 0.0000000000000000 0.0000000000000000 
-0.00063950470092029852 -0.00063950470092029852 0.0024999999999999996 0.0000000000000000 0.0000000000000000 0.0000000000000000 0.0000000000000000 0.0000000000000000 
-0.0012287767927745938 -0.00069195489093399677 0.0024999999999999996 0.0000000000000000 0.0000000000000000 0.0000000000000000 0.0000000000000000 0.0000000000000000 
-0.00093376566973432846 -0.0012021766206546270 0.0000000000000000 0.0000000000000000 0.0000000000000000 0.0099999999999999967 0.0000000000000000 0.0000000000000000 
-0.00066572979592714764 -0.00093414074684744616 0.0000000000000000 0.0000000000000000 0.0000000000000000 0.010000000000000000 0.0000000000000000 0.0000000000000000 
-0.00093414074684744616 -0.00066572979592714764 0.0000000000000000 0.0000000000000000 0.0000000000000000 0.010000000000000004 0.0000000000000000 0.0000000000000000 
-0.0012021766206546270 -0.00093376566973432846 0.0000000000000000 0.0000000000000000 0.0000000000000000 0.010000000000000000 0.0000000000000000 0.0000000000000000 
-0.0011755764485346602 -0.0011755764485346602 0.0012499999999999998 0.0000000000000000 0.0000000000000000 0.0000000000000000 0.0000000000000000 0.0000000000000000 
-0.00069195489093399677 -0.0012287767927745938 0.0012499999999999998 0.0000000000000000 0.0000000000000000 0.0000000000000000 0.0000000000000000 0.0000000000000000 
-0.00063950470092029852 -0.00063950470092029852 0.0012499999999999998 0.0000000000000000 0.0000000000000000 0.0000000000000000 0.0000000000000000 0.0000000000000000 
-0.0012287767927745938 -0.00069195489093399677 0.0012499999999999998 0.0000000000000000 0.0000000000000000 0.0000000000000000 0.0000000000000000 0.0000000000000000 
-0.00093376566973432846 -0.0012021766206546270 0.0024999999999999996 0.0000000000000000 0.0000000000000000 0.0000000000000000 0.0000000000000000 0.0000000000000000 
-0.00066572979592714764 -0.00093414074684744616 0.0024999999999999996 0.0000000000000000 0.0000000000000000 0.0000000000000000 0.0000000000000000 0.0000000000000000 
-0.00093414074684744616 -0.00066572979592714764 0.0024999999999999996 0.0000000000000000 0.0000000000000000 0.0000000000000000 0.0000000000000000 0.0000000000000000 
-0.0012021766206546270 -0.00093376566973432846 0.0024999999999999996 0.0000000000000000 0.0000000000000000 0.0000000000000000 0.0000000000000000 0.0000000000000000 
-0.00093395320829088731 -0.00093395320829088731 0.0000000000000000 0.0000000000000000 0.0000000000000000 0.010000000000000002 0.0000000000000000 0.0000000000000000 
-0.00093376566973432835 -0.0012021766206546270 0.0012499999999999998 0.0000000000000000 0.0000000000000000 0.0000000000000000 0.0000000000000000 0.0000000000000000 
-0.00066572979592714764 -0.00093414074684744605 0.0012499999999999998 0.0000000000000000 0.0000000000000000 0.0000000000000000 0.0000000000000000 0.0000000000000000 
-0.00093414074684744616 -0.00066572979592714764 0.0012499999999999998 0.0000000000000000 0.0000000000000000 0.0000000000000000 0.0000000000000000 0.0000000000000000 
-0.0012021766206546270 -0.00093376566973432835 0.0012499999999999998 0.0000000000000000 0.0000000000000000 0.0000000000000000 0.0000000000000000 0.0000000000000000 
-0.00093395320829088731 -0.00093395320829088731 0.0024999999999999996 0.0000000000000000 0.0000000000000000 0.0000000000000000 0.0000000000000000 0.0000000000000000 
-0.00093395320829088731 -0.00093395320829088731 0.0012499999999999998 0.0000000000000000 0.0000000000000000 0.0000000000000000 0.0000000000000000 0.0000000000000000 
0.0000000000000000 -0.0012298938036811942 0.0000000000000000 0.0000000000000000 0.0000000000000000 0.010000000000000000 0.0000000000000000 0.0000000000000000 
0.0000000000000000 -0.00062164896728019912 0.0000000000000000 0.0000000000000000 0.0000000000000000 0.010000000000000000 0.0000000000000000 0.0000000000000000 
0.0000000000000000 -0.0012298938036811942 0.0024999999999999996 0.0000000000000000 0.0000000000000000 0.0000000000000000 0.0000000000000000 0.0000000000000000 
0.0000000000000000 -0.00062164896728019912 0.0024999999999999996 0.0000000000000000 0.0000000000000000 0.0000000000000000 0.0000000000000000 0.0000000000000000 
-0.00034597744546699838 -0.0012293352982278940 0.0000000000000000 0.0000000000000000 0.0000000000000000 0.010000000000000002 0.0000000000000000 0.0000000000000000 
0.0000000000000000 -0.00092577138548069666 0.0000000000000000 0.0000000000000000 0.0000000000000000 0.010000000000000002 0.0000000000000000 0.0000000000000000 
-0.00031975235046014926 -0.00063057683410024882 0.0000000000000000 0.0000000000000000 0.0000000000000000 0.0099999999999999985 0.0000000000000000 0.0000000000000000 
0.0000000000000000 -0.0012298938036811942 0.0012499999999999998 0.0000000000000000 0.0000000000000000 0.0000000000000000 0.0000000000000000 0.0000000000000000 
0.0000000000000000 -0.00062164896728019912 0.0012499999999999998 0.0000000000000000 0.0000000000000000 0.0000000000000000 0.0000000000000000 0.0000000000000000 
-0.00034597744546699838 -0.0012293352982278940 0.0024999999999999996 0.0000000000000000 0.0000000000000000 0.0000000000000000 0.0000000000000000 0.0000000000000000 
0.0000000000000000 -0.00092577138548069666 0.0024999999999999996 0.0000000000000000 0.0000000000000000 0.0000000000000000 0.0000000000000000 0.0000000000000000 
-0.00031975235046014926 -0.00063057683410024882 0.0024999999999999996 0.0000000000000000 0.0000000000000000 0.0000000000000000 0.0000000000000000 0.0000000000000000 
-0.00033286489796357382 -0.00092995606616407141 0.0000000000000000 0.0000000000000000 0.0000000000000000 0.0099999999999999985 0.0000000000000000 0.0000000000000000 
-0.00034597744546699838 -0.0012293352982278940 0.0012499999999999998 0.0000000000000000 0.0000000000000000 0.0000000000000000 0.0000000000000000 0.0000000000000000 
0.0000000000000000 -0.00092577138548069677 0.0012499999999999998 0.0000000000000000 0.0000000000000000 0.0000000000000000 0.0000000000000000 0.0000000000000000 
-0.00031975235046014926 -0.00063057683410024882 0.0012499999999999998 0.0000000000000000 0.0000000000000000 0.0000000000000000 0.0000000000000000 0.0000000000000000 
-0.00033286489796357382 -0.00092995606616407141 0.0024999999999999996 0.0000000000000000 0.0000000000000000 0.0000000000000000 0.0000000000000000 0.0000000000000000 
-0.00033286489796357382 -0.00092995606616407141 0.0012499999999999998 0.0000000000000000 0.0000000000000000 0.0000000000000000 0.0000000000000000 0.0000000000000000 
-0.00062164896728019912 0.0000000000000000 0.0000000000000000 0.0000000000000000 0.0000000000000000 0.010000000000000000 0.0000000000000000 0.0000000000000000 
-0.0012298938036811942 0.0000000000000000 0.0000000000000000 0.0000000000000000 0.0000000000000000 0.010000000000000000 0.0000000000000000 0.0000000000000000 
-0.00062164896728019912 0.0000000000000000 0.0024999999999999996 0.0000000000000000 0.0000000000000000 0.0000000000000000 0.0000000000000000 0.0000000000000000 
-0.0012298938036811942 0.0000000000000000 0.0024999999999999996 0.0000000000000000 0.0000000000000000 0.0000000000000000 0.0000000000000000 0.0000000000000000 
-0.00063057683410024882 -0.00031975235046014926 0.0000000000000000 0.0000000000000000 0.0000000000000000 0.010000000000000002 0.0000000000000000 0.0000000000000000 
-0.00092577138548069666 0.0000000000000000 0.0000000000000000 0.0000000000000000 0.0000000000000000 0.010000000000000002 0.0000000000000000 0.0000000000000000 
-0.0012293352982278940 -0.00034597744546699838 0.0000000000000000 0.0000000000000000 0.0000000000000000 0.010000000000000000 0.0000000000000000 0.0000000000000000 
-0.00062164896728019912 0.0000000000000000 0.0012499999999999998 0.0000000000000000 0.0000000000000000 0.0000000000000000 0.0000000000000000 0.0000000000000000 
-0.0012298938036811942 0.0000000000000000 0.0012499999999999998 0.0000000000000000 0.0000000000000000 0.0000000000000000 0.0000000000000000 0.0000000000000000 
-0.00063057683410024882 -0.00031975235046014926 0.0024999999999999996 0.0000000000000000 0.0000000000000000 0.0000000000000000 0.0000000000000000 0.0000000000000000 
-0.00092577138548069666 0.0000000000000000 0.0024999999999999996 0.0000000000000000 0.0000000000000000 0.0000000000000000 0.0000000000000000 0.0000000000000000 
-0.0012293352982278940 -0.00034597744546699838 0.0024999999999999996 0.0000000000000000 0.0000000000000000 0.0000000000000000 0.0000000000000000 0.0000000000000000 
-0.00092995606616407141 -0.00033286489796357382 0.0000000000000000 0.0000000000000000 0.0000000000000000 0.010000000000000000 0.0000000000000000 0.0000000000000000 
-0.00063057683410024882 -0.00031975235046014926 0.0012499999999999998 0.0000000000000000 0.0000000000000000 0.0000000000000000 0.0000000000000000 0.0000000000000000 
-0.00092577138548069666 0.0000000000000000 0.0012499999999999998 0.0000000000000000 0.0000000000000000 0.0000000000000000 0.0000000000000000 0.0000000000000000 
-0.0012293352982278940 -0.00034597744546699838 0.0012499999999999998 0.0000000000000000 0.0000000000000000 0.0000000000000000 0.0000000000000000 0.0000000000000000 
-0.00092995606616407141 -0.00033286489796357382 0.0024999999999999996 0.0000000000000000 0.0000000000000000 0.0000000000000000 0.0000000000000000 0.0000000000000000 
-0.00092995606616407141 -0.00033286489796357382 0.0012499999999999998 0.0000000000000000 0.0000000000000000 0.0000000000000000 0.0000000000000000 0.0000000000000000 
0.0000000000000000 0.0000000000000000 0.0000000000000000 0.0000000000000000 0.0000000000000000 0.010000000000000000 0.0000000000000000 0.0000000000000000 
0.0000000000000000 0.0000000000000000 0.0024999999999999996 0.0000000000000000 0.0000000000000000 0.0000000000000000 0.0000000000000000 0.0000000000000000 
0.0000000000000000 -0.00031082448364009956 0.0000000000000000 0.0000000000000000 0.0000000000000000 0.010000000000000004 0.0000000000000000 0.0000000000000000 
-0.00031082448364009956 0.0000000000000000 0.0000000000000000 0.0000000000000000 0.0000000000000000 0.010000000000000002 0.0000000000000000 0.0000000000000000 
0.0000000000000000 0.0000000000000000 0.0012499999999999998 0.0000000000000000 0.0000000000000000 0.0000000000000000 0.0000000000000000 0.0000000000000000 
0.0000000000000000 -0.00031082448364009956 0.0024999999999999996 0.0000000000000000 0.0000000000000000 0.0000000000000000 0.0000000000000000 0.0000000000000000 
-0.00031082448364009956 0.0000000000000000 0.0024999999999999996 0.0000000000000000 0.0000000000000000 0.0000000000000000 0.0000000000000000 0.0000000000000000 
-0.00031528841705012441 -0.00031528841705012441 0.0000000000000000 0.0000000000000000 0.0000000000000000 0.010000000000000005 0.0000000000000000 0.0000000000000000 
0.0000000000000000 -0.00031082448364009956 0.0012499999999999998 0.0000000000000000 0.0000000000000000 0.0000000000000000 0.0000000000000000 0.0000000000000000 
-0.00031082448364009956 0.0000000000000000 0.0012499999999999998 0.0000000000000000 0.0000000000000000 0.0000000000000000 0.0000000000000000 0.0000000000000000 
-0.00031528841705012441 -0.00031528841705012441 0.0024999999999999996 0.0000000000000000 0.0000000000000000 0.0000000000000000 0.0000000000000000 0.0000000000000000 
-0.00031528841705012441 -0.00031528841705012441 0.0012499999999999998 0.0000000000000000 0.0000000000000000 0.0000000000000000 0.0000000000000000 0.0000000000000000 
0.00069195489093399677 -0.0012287767927745938 0.0000000000000000 0.0000000000000000 0.0000000000000000 0.010000000000000000 0.0000000000000000 0.0000000000000000 
0.00063950470092029852 -0.00063950470092029863 0.0000000000000000 0.0000000000000000 0.0000000000000000 0.010000000000000000 0.0000000000000000 0.0000000000000000 
0.00069195489093399677 -0.0012287767927745938 0.0024999999999999996 0.0000000000000000 0.0000000000000000 0.0000000000000000 0.0000000000000000 0.0000000000000000 
0.00063950470092029852 -0.00063950470092029863 0.0024999999999999996 0.0000000000000000 0.0000000000000000 0.0000000000000000 0.0000000000000000 0.0000000000000000 
0.00034597744546699838 -0.0012293352982278940 0.0000000000000000 0.0000000000000000 0.0000000000000000 0.0099999999999999950 0.0000000000000000 0.0000000000000000 
0.00066572979592714764 -0.00093414074684744627 0.0000000000000000 0.0000000000000000 0.0000000000000000 0.0099999999999999950 0.0000000000000000 0.0000000000000000 
0.00031975235046014926 -0.00063057683410024882 0.0000000000000000 0.0000000000000000 0.0000000000000000 0.010000000000000007 0.0000000000000000 0.0000000000000000 
0.00069195489093399677 -0.0012287767927745938 0.0012499999999999998 0.0000000000000000 0.0000000000000000 0.0000000000000000 0.0000000000000000 0.0000000000000000 
0.00063950470092029852 -0.00063950470092029863 0.0012499999999999998 0.0000000000000000 0.0000000000000000 0.0000000000000000 0.0000000000000000 0.0000000000000000 
0.00034597744546699838 -0.0012293352982278940 0.0024999999999999996 0.0000000000000000 0.0000000000000000 0.0000000000000000 0.0000000000000000 0.0000000000000000 
0.00066572979592714764 -0.00093414074684744627 0.0024999999999999996 0.0000000000000000 0.0000000000000000 0.0000000000000000 0.0000000000000000 0.0000000000000000 
0.00031975235046014926 -0.00063057683410024882 0.0024999999999999996 0.0000000000000000 0.0000000000000000 0.0000000000000000 0.0000000000000000 0.0000000000000000 
0.00033286489796357382 -0.00092995606616407152 0.0000000000000000 0.0000000000000000 0.0000000000000000 0.0099999999999999950 0.0000000000000000 0.0000000000000000 
0.00034597744546699838 -0.0012293352982278940 0.0012499999999999998 0.0000000000000000 0.0000000000000000 0.0000000000000000 0.0000000000000000 0.0000000000000000 
0.00066572979592714764 -0.00093414074684744627 0.0012499999999999998 0.0000000000000000 0.0000000000000000 0.0000000000000000 0.0000000000000000 0.0000000000000000 
0.00031975235046014926 -0.00063057683410024893 0.0012499999999999998 0.0000000000000000 0.0000000000000000 0.0000000000000000 0.0000000000000000 0.0000000000000000 
0.00033286489796357382 -0.00092995606616407152 0.0024999999999999996 0.0000000000000000 0.0000000000000000 0.0000000000000000 0.0000000000000000 0.0000000000000000 
0.00033286489796357382 -0.00092995606616407141 0.0012499999999999998 0.0000000000000000 0.0000000000000000 0.0000000000000000 0.0000000000000000 0.0000000000000000 
0.0011755764485346602 -0.0011755764485346602 0.0000000000000000 0.0000000000000000 0.0000000000000000 0.010000000000000000 0.0000000000000000 0.0000000000000000 
0.0012287767927745938 -0.00069195489093399677 0.0000000000000000 0.0000000000000000 0.0000000000000000 0.010000000000000000 0.0000000000000000 0.0000000000000000 
0.0011755764485346602 -0.0011755764485346602 0.0024999999999999996 0.0000000000000000 0.0000000000000000 0.0000000000000000 0.0000000000000000 0.0000000000000000 
0.0012287767927745938 -0.00069195489093399677 0.0024999999999999996 0.0000000000000000 0.0000000000000000 0.0000000000000000 0.0000000000000000 0.0000000000000000 
0.00093376566973432846 -0.0012021766206546270 0.0000000000000000 0.0000000000000000 0.0000000000000000 0.010000000000000009 0.0000000000000000 0.0000000000000000 
0.0012021766206546270 -0.00093376566973432846 0.0000000000000000 0.0000000000000000 0.0000000000000000 0.0099999999999999985 0.0000000000000000 0.0000000000000000 
0.00093414074684744616 -0.00066572979592714764 0.0000000000000000 0.0000000000000000 0.0000000000000000 0.010000000000000005 0.0000000000000000 0.0000000000000000 
0.0011755764485346602 -0.0011755764485346602 0.0012499999999999998 0.0000000000000000 0.0000000000000000 0.0000000000000000 0.0000000000000000 0.0000000000000000 
0.0012287767927745938 -0.00069195489093399677 0.0012499999999999998 0.0000000000000000 0.0000000000000000 0.0000000000000000 0.0000000000000000 0.0000000000000000 
0.00093376566973432846 -0.0012021766206546270 0.0024999999999999996 0.0000000000000000 0.0000000000000000 0.0000000000000000 0.0000000000000000 0.0000000000000000 
0.0012021766206546270 -0.00093376566973432846 0.0024999999999999996 0.0000000000000000 0.0000000000000000 0.0000000000000000 0.0000000000000000 0.0000000000000000 
0.00093414074684744616 -0.00066572979592714764 0.0024999999999999996 0.0000000000000000 0.0000000000000000 0.0000000000000000 0.0000000000000000 0.0000000000000000 
0.00093395320829088731 -0.00093395320829088731 0.0000000000000000 0.0000000000000000 0.0000000000000000 0.010000000000000002 0.0000000000000000 0.0000000000000000 
0.00093376566973432846 -0.0012021766206546270 0.0012499999999999998 0.0000000000000000 0.0000000000000000 0.0000000000000000 0.0000000000000000 0.0000000000000000 
0.0012021766206546270 -0.00093376566973432835 0.0012499999999999998 0.0000000000000000 0.0000000000000000 0.0000000000000000 0.0000000000000000 0.0000000000000000 
0.00093414074684744616 -0.00066572979592714764 0.0012499999999999998 0.0000000000000000 0.0000000000000000 0.0000000000000000 0.0000000000000000 0.0000000000000000 
0.00093395320829088731 -0.00093395320829088731 0.0024999999999999996 0.0000000000000000 0.0000000000000000 0.0000000000000000 0.0000000000000000 0.0000000000000000 
0.00093395320829088731 -0.00093395320829088731 0.0012499999999999998 0.0000000000000000 0.0000000000000000 0.0000000000000000 0.0000000000000000 0.0000000000000000 
0.00062164896728019912 0.0000000000000000 0.0000000000000000 0.0000000000000000 0.0000000000000000 0.010000000000000000 0.0000000000000000 0.0000000000000000 
0.00062164896728019912 0.0000000000000000 0.0024999999999999996 0.0000000000000000 0.0000000000000000 0.0000000000000000 0.0000000000000000 0.0000000000000000 
0.00063057683410024882 -0.00031975235046014932 0.0000000000000000 0.0000000000000000 0.0000000000000000 0.010000000000000000 0.0000000000000000 0.0000000000000000 
0.00031082448364009956 0.0000000000000000 0.0000000000000000 0.0000000000000000 0.0000000000000000 0.010000000000000004 0.0000000000000000 0.0000000000000000 
0.00062164896728019912 0.0000000000000000 0.0012499999999999998 0.0000000000000000 0.0000000000000000 0.0000000000000000 0.0000000000000000 0.0000000000000000 
0.00063057683410024882 -0.00031975235046014932 0.0024999999999999996 0.0000000000000000 0.0000000000000000 0.0000000000000000 0.0000000000000000 0.0000000000000000 
0.00031082448364009956 0.0000000000000000 0.0024999999999999996 0.0000000000000000 0.0000000000000000 0.0000000000000000 0.0000000000000000 0.0000000000000000 
0.00031528841705012441 -0.00031528841705012441 0.0000000000000000 0.0000000000000000 0.0000000000000000 0.010000000000000002 0.0000000000000000 0.0000000000000000 
0.00063057683410024882 -0.00031975235046014932 0.0012499999999999998 0.0000000000000000 0.0000000000000000 0.0000000000000000 0.0000000000000000 0.0000000000000000 
0.00031082448364009956 0.0000000000000000 0.0012499999999999998 0.0000000000000000 0.0000000000000000 0.0000000000000000 0.0000000000000000 0.0000000000000000 
0.00031528841705012441 -0.00031528841705012441 0.0024999999999999996 0.0000000000000000 0.0000000000000000 0.0000000000000000 0.0000000000000000 0.0000000000000000 
0.00031528841705012441 -0.00031528841705012446 0.0012499999999999998 0.0000000000000000 0.0000000000000000 0.0000000000000000 0.0000000000000000 0.0000000000000000 
0.0012298938036811942 0.0000000000000000 0.0000000000000000 0.0000000000000000 0.0000000000000000 0.010000000000000000 0.0000000000000000 0.0000000000000000 
0.0012298938036811942 0.0000000000000000 0.0024999999999999996 0.0000000000000000 0.0000000000000000 0.0000000000000000 0.0000000000000000 0.0000000000000000 
0.0012293352982278940 -0.00034597744546699838 0.0000000000000000 0.0000000000000000 0.0000000000000000 0.010000000000000002 0.0000000000000000 0.0000000000000000 
0.00092577138548069666 0.0000000000000000 0.0000000000000000 0.0000000000000000 0.0000000000000000 0.0099999999999999985 0.0000000000000000 0.0000000000000000 
0.0012298938036811942 0.0000000000000000 0.0012499999999999998 0.0000000000000000 0.0000000000000000 0.0000000000000000 0.0000000000000000 0.0000000000000000 
0.0012293352982278940 -0.00034597744546699838 0.0024999999999999996 0.0000000000000000 0.0000000000000000 0.0000000000000000 0.0000000000000000 0.0000000000000000 
0.00092577138548069666 0.0000000000000000 0.0024999999999999996 0.0000000000000000 0.0000000000000000 0.0000000000000000 0.0000000000000000 0.0000000000000000 
0.00092995606616407141 -0.00033286489796357382 0.0000000000000000 0.0000000000000000 0.0000000000000000 0.0099999999999999985 0.0000000000000000 0.0000000000000000 
0.0012293352982278940 -0.00034597744546699838 0.0012499999999999998 0.0000000000000000 0.0000000000000000 0.0000000000000000 0.0000000000000000 0.0000000000000000 
0.00092577138548069666 0.0000000000000000 0.0012499999999999998 0.0000000000000000 0.0000000000000000 0.0000000000000000 0.0000000000000000 0.0000000000000000 
0.00092995606616407141 -0.00033286489796357382 0.0024999999999999996 0.0000000000000000 0.0000000000000000 0.0000000000000000 0.0000000000000000 0.0000000000000000 
0.00092995606616407141 -0.00033286489796357382 0.0012499999999999998 0.0000000000000000 0.0000000000000000 0.0000000000000000 0.0000000000000000 0.0000000000000000 
-0.00063950470092029863 0.00063950470092029852 0.0000000000000000 0.0000000000000000 0.0000000000000000 0.010000000000000000 0.0000000000000000 0.0000000000000000 
-0.0012287767927745938 0.00069195489093399677 0.0000000000000000 0.0000000000000000 0.0000000000000000 0.010000000000000000 0.0000000000000000 0.0000000000000000 
-0.00063950470092029863 0.00063950470092029852 0.0024999999999999996 0.0000000000000000 0.0000000000000000 0.0000000000000000 0.0000000000000000 0.0000000000000000 
-0.0012287767927745938 0.00069195489093399677 0.0024999999999999996 0.0000000000000000 0.0000000000000000 0.0000000000000000 0.0000000000000000 0.0000000000000000 
-0.00063057683410024882 0.00031975235046014926 0.0000000000000000 0.0000000000000000 0.0000000000000000 0.010000000000000005 0.0000000000000000 0.0000000000000000 
-0.00093414074684744627 0.00066572979592714764 0.0000000000000000 0.0000000000000000 0.0000000000000000 0.010000000000000000 0.0000000000000000 0.0000000000000000 
-0.0012293352982278940 0.00034597744546699838 0.0000000000000000 0.0000000000000000 0.0000000000000000 0.0099999999999999898 0.0000000000000000 0.0000000000000000 
-0.00063950470092029863 0.00063950470092029852 0.0012499999999999998 0.0000000000000000 0.0000000000000000 0.0000000000000000 0.0000000000000000 0.0000000000000000 
-0.0012287767927745938 0.00069195489093399677 0.0012499999999999998 0.0000000000000000 0.0000000000000000 0.0000000000000000 0.0000000000000000 0.0000000000000000 
-0.00063057683410024882 0.00031975235046014926 0.0024999999999999996 0.0000000000000000 0.0000000000000000 0.0000000000000000 0.0000000000000000 0.0000000000000000 
-0.00093414074684744627 0.00066572979592714764 0.0024999999999999996 0.0000000000000000 0.0000000000000000 0.0000000000000000 0.0000000000000000 0.0000000000000000 
-0.0012293352982278940 0.00034597744546699838 0.0024999999999999996 0.0000000000000000 0.0000000000000000 0.0000000000000000 0.0000000000000000 0.0000000000000000 
-0.00092995606616407141 0.00033286489796357382 0.0000000000000000 0.0000000000000000 0.0000000000000000 0.010000000000000002 0.0000000000000000 0.0000000000000000 
-0.00063057683410024893 0.00031975235046014926 0.0012499999999999998 0.0000000000000000 0.0000000000000000 0.0000000000000000 0.0000000000000000 0.0000000000000000 
-0.00093414074684744627 0.00066572979592714764 0.0012499999999999998 0.0000000000000000 0.0000000000000000 0.0000000000000000 0.0000000000000000 0.0000000000000000 
-0.0012293352982278940 0.00034597744546699838 0.0012499999999999998 0.0000000000000000 0.0000000000000000 0.0000000000000000 0.0000000000000000 0.0000000000000000 
-0.00092995606616407141 0.00033286489796357382 0.0024999999999999996 0.0000000000000000 0.0000000000000000 0.0000000000000000 0.0000000000000000 0.0000000000000000 
-0.00092995606616407141 0.00033286489796357382 0.0012499999999999998 0.0000000000000000 0.0000000000000000 0.0000000000000000 0.0000000000000000 0.0000000000000000 
0.0000000000000000 0.00062164896728019912 0.0000000000000000 0.0000000000000000 0.0000000000000000 0.010000000000000000 0.0000000000000000 0.0000000000000000 
0.0000000000000000 0.00062164896728019912 0.0024999999999999996 0.0000000000000000 0.0000000000000000 0.0000000000000000 0.0000000000000000 0.0000000000000000 
0.0000000000000000 0.00031082448364009956 0.0000000000000000 0.0000000000000000 0.0000000000000000 0.010000000000000002 0.0000000000000000 0.0000000000000000 
-0.00031975235046014932 0.00063057683410024882 0.0000000000000000 0.0000000000000000 0.0000000000000000 0.010000000000000000 0.0000000000000000 0.0000000000000000 
0.0000000000000000 0.00062164896728019912 0.0012499999999999998 0.0000000000000000 0.0000000000000000 0.0000000000000000 0.0000000000000000 0.0000000000000000 
0.0000000000000000 0.00031082448364009956 0.0024999999999999996 0.0000000000000000 0.0000000000000000 0.0000000000000000 0.0000000000000000 0.0000000000000000 
-0.00031975235046014932 0.00063057683410024882 0.0024999999999999996 0.0000000000000000 0.0000000000000000 0.0000000000000000 0.0000000000000000 0.0000000000000000 
-0.00031528841705012441 0.00031528841705012441 0.0000000000000000 0.0000000000000000 0.0000000000000000 0.010000000000000004 0.0000000000000000 0.0000000000000000 
0.0000000000000000 0.00031082448364009956 0.0012499999999999998 0.0000000000000000 0.0000000000000000 0.0000000000000000 0.0000000000000000 0.0000000000000000 
-0.00031975235046014932 0.00063057683410024882 0.0012499999999999998 0.0000000000000000 0.0000000000000000 0.0000000000000000 0.0000000000000000 0.0000000000000000 
-0.00031528841705012441 0.00031528841705012441 0.0024999999999999996 0.0000000000000000 0.0000000000000000 0.0000000000000000 0.0000000000000000 0.0000000000000000 
-0.00031528841705012446 0.00031528841705012441 0.0012499999999999998 0.0000000000000000 0.0000000000000000 0.0000000000000000 0.0000000000000000 0.0000000000000000 
-0.00069195489093399677 0.0012287767927745938 0.0000000000000000 0.0000000000000000 0.0000000000000000 0.010000000000000000 0.0000000000000000 0.0000000000000000 
-0.0011755764485346602 0.0011755764485346602 0.0000000000000000 0.0000000000000000 0.0000000000000000 0.010000000000000000 0.0000000000000000 0.0000000000000000 
-0.00069195489093399677 0.0012287767927745938 0.0024999999999999996 0.0000000000000000 0.0000000000000000 0.0000000000000000 0.0000000000000000 0.0000000000000000 
-0.0011755764485346602 0.0011755764485346602 0.0024999999999999996 0.0000000000000000 0.0000000000000000 0.0000000000000000 0.0000000000000000 0.0000000000000000 
-0.00066572979592714764 0.00093414074684744616 0.0000000000000000 0.0000000000000000 0.0000000000000000 0.010000000000000004 0.0000000000000000 0.0000000000000000 
-0.00093376566973432846 0.0012021766206546270 0.0000000000000000 0.0000000000000000 0.0000000000000000 0.0099999999999999985 0.0000000000000000 0.0000000000000000 
-0.0012021766206546270 0.00093376566973432846 0.0000000000000000 0.0000000000000000 0.0000000000000000 0.010000000000000007 0.0000000000000000 0.0000000000000000 
-0.00069195489093399677 0.0012287767927745938 0.0012499999999999998 0.0000000000000000 0.0000000000000000 0.0000000000000000 0.0000000000000000 0.0000000000000000 
-0.0011755764485346602 0.0011755764485346602 0.0012499999999999998 0.0000000000000000 0.0000000000000000 0.0000000000000000 0.0000000000000000 0.0000000000000000 
-0.00066572979592714764 0.00093414074684744616 0.0024999999999999996 0.0000000000000000 0.0000000000000000 0.0000000000000000 0.0000000000000000 0.0000000000000000 
-0.00093376566973432846 0.0012021766206546270 0.0024999999999999996 0.0000000000000000 0.0000000000000000 0.0000000000000000 0.0000000000000000 0.0000000000000000 
-0.0012021766206546270 0.00093376566973432846 0.0024999999999999996 0.0000000000000000 0.0000000000000000 0.0000000000000000 0.0000000000000000 0.0000000000000000 
-0.00093395320829088731 0.00093395320829088731 0.0000000000000000 0.0000000000000000 0.0000000000000000 0.0099999999999999985 0.0000000000000000 0.0000000000000000 
-0.00066572979592714764 0.00093414074684744616 0.0012499999999999998 0.0000000000000000 0.0000000000000000 0.0000000000000000 0.0000000000000000 0.0000000000000000 
-0.00093376566973432846 0.0012021766206546270 0.0012499999999999998 0.0000000000000000 0.0000000000000000 0.0000000000000000 0.0000000000000000 0.0000000000000000 
-0.0012021766206546270 0.00093376566973432846 0.0012499999999999998 0.0000000000000000 0.0000000000000000 0.0000000000000000 0.0000000000000000 0.0000000000000000 
-0.00093395320829088731 0.00093395320829088731 0.0024999999999999996 0.0000000000000000 0.0000000000000000 0.0000000000000000 0.0000000000000000 0.0000000000000000 