# For a description of the Tecplot format see the Tecplot User's guide.
#
Variables=x,y,z,u,v,w,p,T
Zone f=fepoint, n=16513, e=15360, et=brick, c=black
-0.00117558 -0.00117558 0.00000 0.0000000000000000 0.0000000000000000 0.010000000000000000 202.48180940378626 0.0000000000000000 
-0.00069195489093399677 -0.0012287767927745938 0.0000000000000000 0.0000000000000000 0.0000000000000000 0.010000000000000000 202.48031828021465 0.0000000000000000 
-0.00063950470092029852 -0.00063950470092029852 0.0000000000000000 0.0000000000000000 0.0000000000000000 0.010000000000000000 202.47874228350585 0.0000000000000000 
-0.0012287767927745938 -0.00069195489093399677 0.0000000000000000 0.0000000000000000 0.0000000000000000 0.010000000000000000 202.48031828021493 0.0000000000000000 
-0.0011755764485346602 -0.0011755764485346602 0.0024999999999999996 0.00092640909808169728 0.00092640909809661004 0.010202241854659835 202.61141899994550 -2.1093919142562323e-05 
-0.00069195489093399677 -0.0012287767927745938 0.0024999999999999996 0.00056934325336279118 0.0010031908079730484 0.010177074678643195 202.61086324992988 -2.5935883931097749e-05 
-0.00063950470092029852 -0.00063950470092029852 0.0024999999999999996 0.00055057688216404916 0.00055057688217437001 0.010107263328141568 202.60996214280240 -2.9065611596947543e-06 
-0.0012287767927745938 -0.00069195489093399677 0.0024999999999999996 0.0010031908079547161 0.00056934325337200950 0.010177074678645846 202.61086324992974 -2.5935883931464507e-05 
-0.00093376566973432846 -0.0012021766206546270 0.0000000000000000 0.0000000000000000 0.0000000000000000 0.0099999999999999967 202.48106384200045 0.0000000000000000 
-0.00066572979592714764 -0.00093414074684744616 0.0000000000000000 0.0000000000000000 0.0000000000000000 0.010000000000000000 202.47953028186026 0.0000000000000000 
-0.00093414074684744616 -0.00066572979592714764 0.0000000000000000 0.0000000000000000 0.0000000000000000 0.010000000000000004 202.47953028186038 0.0000000000000000 
-0.0012021766206546270 -0.00093376566973432846 0.0000000000000000 0.0000000000000000 0.0000000000000000 0.010000000000000000 202.48106384200059 0.0000000000000000 
-0.0011755764485346602 -0.0011755764485346602 0.0012499999999999998 0.00082117848001138165 0.00082117848001003421 0.011849677124110350 202.54661420186591 1.5999674482060502e-05 
-0.00069195489093399677 -0.0012287767927745938 0.0012499999999999998 0.00046430470090284094 0.00083277432246133605 0.011759972157322387 202.54559076507226 2.4553975478046009e-05 
-0.00063950470092029852 -0.00063950470092029852 0.0012499999999999998 0.00040655773548498882 0.00040655773548062702 0.011625680430276671 202.54435221315413 1.0210244955492859e-05 
-0.0012287767927745938 -0.00069195489093399677 0.0012499999999999998 0.00083277432246936945 0.00046430470089641731 0.011759972157325915 202.54559076507235 2.4553975478307661e-05 
-0.00093376566973432846 -0.0012021766206546270 0.0024999999999999996 0.00075645251200117064 0.00096653965164315229 0.010190045188542499 202.61114112493769 -2.5625582773550794e-05 
-0.00066572979592714764 -0.00093414074684744616 0.0024999999999999996 0.00056322737946923188 0.00079012731502089908 0.010141422229497578 202.61041269636615 -2.1167154236578156e-05 
-0.00093414074684744616 -0.00066572979592714764 0.0024999999999999996 0.00079012731500883223 0.00056322737948511382 0.010141422229497194 202.61041269636607 -2.1167154236862695e-05 
-0.0012021766206546270 -0.00093376566973432846 0.0024999999999999996 0.00096653965163725174 0.00075645251200935040 0.010190045188544992 202.61114112493760 -2.5625582773678218e-05 
-0.00093395320829088731 -0.00093395320829088731 0.0000000000000000 0.0000000000000000 0.0000000000000000 0.010000000000000002 202.48029706193040 0.0000000000000000 
-0.00093376566973432835 -0.0012021766206546270 0.0012499999999999998 0.00063694144561823364 0.00082682791873955625 0.011797428371139253 202.54610248346910 2.2383152516609990e-05 
-0.00066572979592714764 -0.00093414074684744605 0.0012499999999999998 0.00043290335237017226 0.00060787875961961153 0.011681629841878607 202.54497148911321 2.5974732922294787e-05 
-0.00093414074684744616 -0.00066572979592714764 0.0012499999999999998 0.00060787875962884698 0.00043290335235876234 0.011681629841880918 202.54497148911321 2.5974732922550113e-05 
-0.0012021766206546270 -0.00093376566973432835 0.0012499999999999998 0.00082682791874152766 0.00063694144561145900 0.011797428371140692 202.54610248346910 2.2383152516661446e-05 
-0.00093395320829088731 -0.00093395320829088731 0.0024999999999999996 0.00077648663546100603 0.00077648663547306713 0.010165681540457959 202.61077691065188 -2.7347937861452712e-05 
-0.00093395320829088731 -0.00093395320829088731 0.0012499999999999998 0.00062012490854006556 0.00062012490853237921 0.011730461230312760 202.54553698629115 2.8709151673050264e-05 
0.0000000000000000 -0.0012298938036811942 0.0000000000000000 0.0000000000000000 0.0000000000000000 0.010000000000000000 202.47908485030152 0.0000000000000000 
0.0000000000000000 -0.00062164896728019912 0.0000000000000000 0.0000000000000000 0.0000000000000000 0.010000000000000000 202.47767642913504 0.0000000000000000 
0.0000000000000000 -0.0012298938036811942 0.0024999999999999996 -7.1146328449859414e-15 0.0010234356851792760 0.010152926162805586 202.61060439759561 -2.0212531144654963e-05 
0.0000000000000000 -0.00062164896728019912 0.0024999999999999996 -9.6603535950885972e-15 0.00054219622280174753 0.010073264110558281 202.60973075625586 2.9553602769201360e-05 
-0.00034597744546699838 -0.0012293352982278940 0.0000000000000000 0.0000000000000000 0.0000000000000000 0.010000000000000002 202.47970156525810 0.0000000000000000 
0.0000000000000000 -0.00092577138548069666 0.0000000000000000 0.0000000000000000 0.0000000000000000 0.010000000000000002 202.47838063971830 0.0000000000000000 
-0.00031975235046014926 -0.00063057683410024882 0.0000000000000000 0.0000000000000000 0.0000000000000000 0.0099999999999999985 202.47820935632046 0.0000000000000000 
0.0000000000000000 -0.0012298938036811942 0.0012499999999999998 2.8745879857139751e-15 0.00081662150027197913 0.011704492358993809 202.54484462394856 2.1485109028907649e-05 
0.0000000000000000 -0.00062164896728019912 0.0012499999999999998 -5.9309155041736269e-15 0.00038739495543509394 0.011576316864134356 202.54370359269544 -2.6476405643651588e-05 
-0.00034597744546699838 -0.0012293352982278940 0.0024999999999999996 0.00028865605439817773 0.0010184920012728019 0.010159742020277487 202.61073382376276 -2.2489346692496574e-05 
0.0000000000000000 -0.00092577138548069666 0.0024999999999999996 -3.6509684336712779e-15 0.00079557499661956060 0.010110364069537003 202.61016757692573 -2.6678573206799778e-06 
-0.00031975235046014926 -0.00063057683410024882 0.0024999999999999996 0.00027686729260557679 0.00054829781453498872 0.010082765179603319 202.60984644952913 1.9207277402106237e-05 
-0.00033286489796357382 -0.00092995606616407141 0.0000000000000000 0.0000000000000000 0.0000000000000000 0.0099999999999999985 202.47895546078928 0.0000000000000000 
-0.00034597744546699838 -0.0012293352982278940 0.0012499999999999998 0.00023046243632181672 0.00082098373447183552 0.011718746108186403 202.54521769451043 2.3214503297400950e-05 
0.0000000000000000 -0.00092577138548069677 0.0012499999999999998 8.2373023604729769e-16 0.00058947842160947275 0.011628523674047219 202.54427410832199 8.4277227341622554e-06 
-0.00031975235046014926 -0.00063057683410024882 0.0012499999999999998 0.00020267721612097619 0.00039513645962383637 0.011589638704327903 202.54402790292477 -1.4133229606221910e-05 
-0.00033286489796357382 -0.00092995606616407141 0.0024999999999999996 0.00028410757825879970 0.00079618975709505005 0.010119048358823298 202.61029013664594 -8.8123032169639643e-06 
-0.00033286489796357382 -0.00092995606616407141 0.0012499999999999998 0.00021550879578346874 0.00059563452995786269 0.011642640916222231 202.54462279871763 1.4775355168936619e-05 
-0.00062164896728019912 0.0000000000000000 0.0000000000000000 0.0000000000000000 0.0000000000000000 0.010000000000000000 202.47767642913516 0.0000000000000000 
-0.0012298938036811942 0.0000000000000000 0.0000000000000000 0.0000000000000000 0.0000000000000000 0.010000000000000000 202.47908485030169 0.0000000000000000 
-0.00062164896728019912 0.0000000000000000 0.0024999999999999996 0.00054219622279753649 -2.5961498682854536e-15 0.010073264110557228 202.60973075625589 2.9553602768763867e-05 
-0.0012298938036811942 0.0000000000000000 0.0024999999999999996 0.0010234356851731817 2.4917727783488161e-15 0.010152926162808426 202.61060439759552 -2.0212531145554933e-05 
-0.00063057683410024882 -0.00031975235046014926 0.0000000000000000 0.0000000000000000 0.0000000000000000 0.010000000000000002 202.47820935632052 0.0000000000000000 
-0.00092577138548069666 0.0000000000000000 0.0000000000000000 0.0000000000000000 0.0000000000000000 0.010000000000000002 202.47838063971841 0.0000000000000000 
-0.0012293352982278940 -0.00034597744546699838 0.0000000000000000 0.0000000000000000 0.0000000000000000 0.010000000000000000 202.47970156525832 0.0000000000000000 
-0.00062164896728019912 0.0000000000000000 0.0012499999999999998 0.00038739495545187842 -1.2623423206155720e-14 0.011576316864134335 202.54370359269552 -2.6476405642791382e-05 
-0.0012298938036811942 0.0000000000000000 0.0012499999999999998 0.00081662150028507206 -1.0005616366815310e-14 0.011704492358995641 202.54484462394859 2.1485109029786002e-05 
-0.00063057683410024882 -0.00031975235046014926 0.0024999999999999996 0.00054829781453615836 0.00027686729260935746 0.010082765179602713 202.60984644952913 1.9207277401754329e-05 
-0.00092577138548069666 0.0000000000000000 0.0024999999999999996 0.00079557499661489332 3.2494463240643236e-15 0.010110364069539031 202.61016757692568 -2.6678573215608984e-06 
-0.0012293352982278940 -0.00034597744546699838 0.0024999999999999996 0.0010184920012669652 0.00028865605440766699 0.010159742020281319 202.61073382376262 -2.2489346693243756e-05 
-0.00092995606616407141 -0.00033286489796357382 0.0000000000000000 0.0000000000000000 0.0000000000000000 0.010000000000000000 202.47895546078939 0.0000000000000000 
-0.00063057683410024882 -0.00031975235046014926 0.0012499999999999998 0.00039513645963873059 0.00020267721611213349 0.011589638704328444 202.54402790292482 -1.4133229605718327e-05 
-0.00092577138548069666 0.0000000000000000 0.0012499999999999998 0.00058947842162510099 -9.1181245880599669e-15 0.011628523674047767 202.54427410832204 8.4277227351363585e-06 
-0.0012293352982278940 -0.00034597744546699838 0.0012499999999999998 0.00082098373447949443 0.00023046243631367531 0.011718746108189149 202.54521769451046 2.3214503298088330e-05 
-0.00092995606616407141 -0.00033286489796357382 0.0024999999999999996 0.00079618975709022665 0.00028410757826524241 0.010119048358822299 202.61029013664589 -8.8123032176573675e-06 
-0.00092995606616407141 -0.00033286489796357382 0.0012499999999999998 0.00059563452997000858 0.00021550879577371648 0.011642640916223811 202.54462279871765 1.4775355169637099e-05 
0.0000000000000000 0.0000000000000000 0.0000000000000000 0.0000000000000000 0.0000000000000000 0.010000000000000000 202.47675387918775 0.0000000000000000 
0.0000000000000000 0.0000000000000000 0.0024999999999999996 -1.6450388273433194e-15 4.4862415676886105e-15 0.010039526461358830 202.60952979271889 7.4759149811014323e-05 
0.0000000000000000 -0.00031082448364009956 0.0000000000000000 0.0000000000000000 0.0000000000000000 0.010000000000000004 202.47721515416140 0.0000000000000000 
-0.00031082448364009956 0.0000000000000000 0.0000000000000000 0.0000000000000000 0.0000000000000000 0.010000000000000002 202.47721515416146 0.0000000000000000 
0.0000000000000000 0.0000000000000000 0.0012499999999999998 -1.7411097729735209e-15 -1.4405638836484370e-14 0.011532642655502884 202.54314183595329 -8.3778983148166688e-05 
0.0000000000000000 -0.00031082448364009956 0.0024999999999999996 -4.5318249736119222e-15 0.00027207577388730400 0.010048372482772133 202.60963027448736 6.1597026564598909e-05 
-0.00031082448364009956 0.0000000000000000 0.0024999999999999996 0.00027207577388261694 2.5885306102235673e-15 0.010048372482774319 202.60963027448736 6.1597026564546596e-05 
-0.00031528841705012441 -0.00031528841705012441 0.0000000000000000 0.0000000000000000 0.0000000000000000 0.010000000000000005 202.47771225524096 0.0000000000000000 
0.0000000000000000 -0.00031082448364009956 0.0012499999999999998 -4.1404538312046164e-15 0.00019321840529332163 0.011543882085798205 202.54342271432438 -6.6389336728875934e-05 
-0.00031082448364009956 0.0000000000000000 0.0012499999999999998 0.00019321840530680338 -1.3961051323983676e-14 0.011543882085797454 202.54342271432441 -6.6389336728450290e-05 
-0.00031528841705012441 -0.00031528841705012441 0.0024999999999999996 0.00027528340710789847 0.00027528340711190498 0.010057537235554219 202.60973836200824 4.8942329782789171e-05 
-0.00031528841705012441 -0.00031528841705012441 0.0012499999999999998 0.00019704465649342227 0.00019704465648394170 0.011555824292325722 202.54372530862460 -5.0069708056746540e-05 
0.00069195489093399677 -0.0012287767927745938 0.0000000000000000 0.0000000000000000 0.0000000000000000 0.010000000000000000 202.48031828021482 0.0000000000000000 
0.00063950470092029852 -0.00063950470092029863 0.0000000000000000 0.0000000000000000 0.0000000000000000 0.010000000000000000 202.47874228350602 0.0000000000000000 
0.00069195489093399677 -0.0012287767927745938 0.0024999999999999996 -0.00056934325337487581 0.0010031908079796926 0.010177074678642000 202.61086324992974 -2.5935883930995739e-05 
0.00063950470092029852 -0.00063950470092029863 0.0024999999999999996 -0.00055057688218183062 0.00055057688217929196 0.010107263328140633 202.60996214280246 -2.9065611599367529e-06 
0.00034597744546699838 -0.0012293352982278940 0.0000000000000000 0.0000000000000000 0.0000000000000000 0.0099999999999999950 202.47970156525815 0.0000000000000000 
0.00066572979592714764 -0.00093414074684744627 0.0000000000000000 0.0000000000000000 0.0000000000000000 0.0099999999999999950 202.47953028186043 0.0000000000000000 
0.00031975235046014926 -0.00063057683410024882 0.0000000000000000 0.0000000000000000 0.0000000000000000 0.010000000000000007 202.47820935632052 0.0000000000000000 
0.00069195489093399677 -0.0012287767927745938 0.0012499999999999998 -0.00046430470090977127 0.00083277432246861560 0.011759972157321627 202.54559076507229 2.4553975477824680e-05 
0.00063950470092029852 -0.00063950470092029863 0.0012499999999999998 -0.00040655773549767914 0.00040655773548538694 0.011625680430276212 202.54435221315424 1.0210244955907484e-05 
0.00034597744546699838 -0.0012293352982278940 0.0024999999999999996 -0.00028865605440828629 0.0010184920012785367 0.010159742020279068 202.61073382376267 -2.2489346692518357e-05 
0.00066572979592714764 -0.00093414074684744627 0.0024999999999999996 -0.00056322737949403767 0.00079012731502538041 0.010141422229495047 202.61041269636610 -2.1167154236660769e-05 
0.00031975235046014926 -0.00063057683410024882 0.0024999999999999996 -0.00027686729261770825 0.00054829781453940055 0.010082765179603201 202.60984644952913 1.9207277401955055e-05 
0.00033286489796357382 -0.00092995606616407152 0.0000000000000000 0.0000000000000000 0.0000000000000000 0.0099999999999999950 202.47895546078934 0.0000000000000000 
0.00034597744546699838 -0.0012293352982278940 0.0012499999999999998 -0.00023046243632316964 0.00082098373447851334 0.011718746108184703 202.54521769451040 2.3214503297369867e-05 
0.00066572979592714764 -0.00093414074684744627 0.0012499999999999998 -0.00043290335237454507 0.00060787875962645317 0.011681629841878481 202.54497148911327 2.5974732922209410e-05 
0.00031975235046014926 -0.00063057683410024893 0.0012499999999999998 -0.00020267721612853221 0.00039513645962889802 0.011589638704327884 202.54402790292482 -1.4133229605608798e-05 
0.00033286489796357382 -0.00092995606616407152 0.0024999999999999996 -0.00028410757827328442 0.00079618975709496755 0.010119048358820083 202.61029013664592 -8.8123032170731333e-06 
0.00033286489796357382 -0.00092995606616407141 0.0012499999999999998 -0.00021550879578660490 0.00059563452996273423 0.011642640916222394 202.54462279871763 1.4775355169121240e-05 
0.0011755764485346602 -0.0011755764485346602 0.0000000000000000 0.0000000000000000 0.0000000000000000 0.010000000000000000 202.48180940378612 0.0000000000000000 
0.0012287767927745938 -0.00069195489093399677 0.0000000000000000 0.0000000000000000 0.0000000000000000 0.010000000000000000 202.48031828021462 0.0000000000000000 
0.0011755764485346602 -0.0011755764485346602 0.0024999999999999996 -0.00092640909810286448 0.00092640909810130551 0.010202241854651527 202.61141899994564 -2.1093919142352313e-05 
0.0012287767927745938 -0.00069195489093399677 0.0024999999999999996 -0.0010031908079809208 0.00056934325337811161 0.010177074678641197 202.61086324992979 -2.5935883931308667e-05 
0.00093376566973432846 -0.0012021766206546270 0.0000000000000000 0.0000000000000000 0.0000000000000000 0.010000000000000009 202.48106384200048 0.0000000000000000 
0.0012021766206546270 -0.00093376566973432846 0.0000000000000000 0.0000000000000000 0.0000000000000000 0.0099999999999999985 202.48106384200037 0.0000000000000000 
0.00093414074684744616 -0.00066572979592714764 0.0000000000000000 0.0000000000000000 0.0000000000000000 0.010000000000000005 202.47953028186032 0.0000000000000000 
0.0011755764485346602 -0.0011755764485346602 0.0012499999999999998 -0.00082117848001995834 0.00082117848001876702 0.011849677124107252 202.54661420186591 1.5999674481877285e-05 
0.0012287767927745938 -0.00069195489093399677 0.0012499999999999998 -0.00083277432247446737 0.00046430470090575853 0.011759972157320085 202.54559076507221 2.4553975478022458e-05 
0.00093376566973432846 -0.0012021766206546270 0.0024999999999999996 -0.00075645251201505840 0.00096653965165830293 0.010190045188539059 202.61114112493769 -2.5625582773361137e-05 
0.0012021766206546270 -0.00093376566973432846 0.0024999999999999996 -0.00096653965166608447 0.00075645251201969868 0.010190045188541134 202.61114112493772 -2.5625582773465732e-05 
0.00093414074684744616 -0.00066572979592714764 0.0024999999999999996 -0.00079012731503185689 0.00056322737948724406 0.010141422229495168 202.61041269636613 -2.1167154236976790e-05 
0.00093395320829088731 -0.00093395320829088731 0.0000000000000000 0.0000000000000000 0.0000000000000000 0.010000000000000002 202.48029706193040 0.0000000000000000 
0.00093376566973432846 -0.0012021766206546270 0.0012499999999999998 -0.00063694144562137891 0.00082682791874689120 0.011797428371137163 202.54610248346907 2.2383152516324967e-05 
0.0012021766206546270 -0.00093376566973432835 0.0012499999999999998 -0.00082682791874826901 0.00063694144562411056 0.011797428371135163 202.54610248346904 2.2383152516349253e-05 
0.00093414074684744616 -0.00066572979592714764 0.0012499999999999998 -0.00060787875963612989 0.00043290335237922909 0.011681629841878155 202.54497148911324 2.5974732922416397e-05 
0.00093395320829088731 -0.00093395320829088731 0.0024999999999999996 -0.00077648663548462852 0.00077648663547999952 0.010165681540455822 202.61077691065191 -2.7347937861401707e-05 
0.00093395320829088731 -0.00093395320829088731 0.0012499999999999998 -0.00062012490854651818 0.00062012490854523406 0.011730461230309805 202.54553698629115 2.8709151672692834e-05 
0.00062164896728019912 0.0000000000000000 0.0000000000000000 0.0000000000000000 0.0000000000000000 0.010000000000000000 202.47767642913519 0.0000000000000000 
0.00062164896728019912 0.0000000000000000 0.0024999999999999996 -0.00054219622280638673 6.1781411411004361e-15 0.010073264110559478 202.60973075625591 2.9553602768399297e-05 
0.00063057683410024882 -0.00031975235046014932 0.0000000000000000 0.0000000000000000 0.0000000000000000 0.010000000000000000 202.47820935632060 0.0000000000000000 
0.00031082448364009956 0.0000000000000000 0.0000000000000000 0.0000000000000000 0.0000000000000000 0.010000000000000004 202.47721515416146 0.0000000000000000 
0.00062164896728019912 0.0000000000000000 0.0012499999999999998 -0.00038739495545336622 -5.2614037064035634e-15 0.011576316864136064 202.54370359269555 -2.6476405642172354e-05 
0.00063057683410024882 -0.00031975235046014932 0.0024999999999999996 -0.00054829781454256751 0.00027686729261293554 0.010082765179603520 202.60984644952919 1.9207277401479755e-05 
0.00031082448364009956 0.0000000000000000 0.0024999999999999996 -0.00027207577389238012 3.3484559370004344e-15 0.010048372482774445 202.60963027448739 6.1597026564353541e-05 
0.00031528841705012441 -0.00031528841705012441 0.0000000000000000 0.0000000000000000 0.0000000000000000 0.010000000000000002 202.47771225524099 0.0000000000000000 
0.00063057683410024882 -0.00031975235046014932 0.0012499999999999998 -0.00039513645964924719 0.00020267721611876610 0.011589638704329575 202.54402790292488 -1.4133229604916202e-05 
0.00031082448364009956 0.0000000000000000 0.0012499999999999998 -0.00019321840530788409 -2.8348728041017791e-15 0.011543882085799446 202.54342271432441 -6.6389336727905478e-05 
0.00031528841705012441 -0.00031528841705012441 0.0024999999999999996 -0.00027528340711526205 0.00027528340711472065 0.010057537235553816 202.60973836200824 4.8942329782663580e-05 
0.00031528841705012441 -0.00031528841705012446 0.0012499999999999998 -0.00019704465650297333 0.00019704465648910663 0.011555824292328288 202.54372530862463 -5.0069708055885297e-05 
0.0012298938036811942 0.0000000000000000 0.0000000000000000 0.0000000000000000 0.0000000000000000 0.010000000000000000 202.47908485030169 0.0000000000000000 
0.0012298938036811942 0.0000000000000000 0.0024999999999999996 -0.0010234356851798606 3.4702480162774544e-15 0.010152926162806461 202.61060439759569 -2.0212531145735574e-05 
0.0012293352982278940 -0.00034597744546699838 0.0000000000000000 0.0000000000000000 0.0000000000000000 0.010000000000000002 202.47970156525815 0.0000000000000000 
0.00092577138548069666 0.0000000000000000 0.0000000000000000 0.0000000000000000 0.0000000000000000 0.0099999999999999985 202.47838063971844 0.0000000000000000 
0.0012298938036811942 0.0000000000000000 0.0012499999999999998 -0.00081662150028636964 -3.9054164597945851e-17 0.011704492358995044 202.54484462394868 2.1485109029863868e-05 
0.0012293352982278940 -0.00034597744546699838 0.0024999999999999996 -0.0010184920012897671 0.00028865605440904686 0.010159742020276441 202.61073382376276 -2.2489346693241611e-05 
0.00092577138548069666 0.0000000000000000 0.0024999999999999996 -0.00079557499662542949 7.4046681647628053e-15 0.010110364069540412 202.61016757692579 -2.6678573219518024e-06 
0.00092995606616407141 -0.00033286489796357382 0.0000000000000000 0.0000000000000000 0.0000000000000000 0.0099999999999999985 202.47895546078936 0.0000000000000000 
0.0012293352982278940 -0.00034597744546699838 0.0012499999999999998 -0.00082098373448721439 0.00023046243632284934 0.011718746108185822 202.54521769451046 2.3214503297988252e-05 
0.00092577138548069666 0.0000000000000000 0.0012499999999999998 -0.00058947842162640897 -5.4261120818601685e-15 0.011628523674048291 202.54427410832210 8.4277227354609856e-06 
0.00092995606616407141 -0.00033286489796357382 0.0024999999999999996 -0.00079618975710532200 0.00028410757826853377 0.010119048358819788 202.61029013664597 -8.8123032179276303e-06 
0.00092995606616407141 -0.00033286489796357382 0.0012499999999999998 -0.00059563452997377661 0.00021550879578352889 0.011642640916223898 202.54462279871768 1.4775355169867664e-05 
-0.00063950470092029863 0.00063950470092029852 0.0000000000000000 0.0000000000000000 0.0000000000000000 0.010000000000000000 202.47874228350597 0.0000000000000000 
-0.0012287767927745938 0.00069195489093399677 0.0000000000000000 0.0000000000000000 0.0000000000000000 0.010000000000000000 202.48031828021476 0.0000000000000000 
-0.00063950470092029863 0.00063950470092029852 0.0024999999999999996 0.00055057688217625121 -0.00055057688217030674 0.010107263328139373 202.60996214280226 -2.9065611601166457e-06 
-0.0012287767927745938 0.00069195489093399677 0.0024999999999999996 0.0010031908079744347 -0.00056934325336818921 0.010177074678643412 202.61086324992985 -2.5935883931474099e-05 
-0.00063057683410024882 0.00031975235046014926 0.0000000000000000 0.0000000000000000 0.0000000000000000 0.010000000000000005 202.47820935632058 0.0000000000000000 
-0.00093414074684744627 0.00066572979592714764 0.0000000000000000 0.0000000000000000 0.0000000000000000 0.010000000000000000 202.47953028186038 0.0000000000000000 
-0.0012293352982278940 0.00034597744546699838 0.0000000000000000 0.0000000000000000 0.0000000000000000 0.0099999999999999898 202.47970156525821 0.0000000000000000 
-0.00063950470092029863 0.00063950470092029852 0.0012499999999999998 0.00040655773549796103 -0.00040655773549745910 0.011625680430274321 202.54435221315413 1.0210244956256280e-05 
-0.0012287767927745938 0.00069195489093399677 0.0012499999999999998 0.00083277432247893558 -0.00046430470091725042 0.011759972157317071 202.54559076507229 2.4553975478215372e-05 
-0.00063057683410024882 0.00031975235046014926 0.0024999999999999996 0.00054829781453552616 -0.00027686729260707537 0.010082765179602734 202.60984644952907 1.9207277401567474e-05 
-0.00093414074684744627 0.00066572979592714764 0.0024999999999999996 0.00079012731502496342 -0.00056322737947189078 0.010141422229493909 202.61041269636604 -2.1167154237160308e-05 
-0.0012293352982278940 0.00034597744546699838 0.0024999999999999996 0.0010184920012775223 -0.00028865605439631095 0.010159742020282013 202.61073382376267 -2.2489346693285504e-05 
-0.00092995606616407141 0.00033286489796357382 0.0000000000000000 0.0000000000000000 0.0000000000000000 0.010000000000000002 202.47895546078939 0.0000000000000000 
-0.00063057683410024893 0.00031975235046014926 0.0012499999999999998 0.00039513645964807707 -0.00020267721613542166 0.011589638704326293 202.54402790292482 -1.4133229604816649e-05 
-0.00093414074684744627 0.00066572979592714764 0.0012499999999999998 0.00060787875963785214 -0.00043290335238441565 0.011681629841875119 202.54497148911321 2.5974732922631859e-05 
-0.0012293352982278940 0.00034597744546699838 0.0012499999999999998 0.00082098373449101560 -0.00023046243633457648 0.011718746108184561 202.54521769451043 2.3214503298118942e-05 
-0.00092995606616407141 0.00033286489796357382 0.0024999999999999996 0.00079618975709945191 -0.00028410757826190073 0.010119048358820836 202.61029013664586 -8.8123032178790275e-06 
-0.00092995606616407141 0.00033286489796357382 0.0012499999999999998 0.00059563452997731772 -0.00021550879579634112 0.011642640916219551 202.54462279871765 1.4775355169970501e-05 
0.0000000000000000 0.00062164896728019912 0.0000000000000000 0.0000000000000000 0.0000000000000000 0.010000000000000000 202.47767642913533 0.0000000000000000 
0.0000000000000000 0.00062164896728019912 0.0024999999999999996 1.5334586507162302e-17 -0.00054219622279426069 0.010073264110556413 202.60973075625583 2.9553602768813120e-05 
0.0000000000000000 0.00031082448364009956 0.0000000000000000 0.0000000000000000 0.0000000000000000 0.010000000000000002 202.47721515416154 0.0000000000000000 
-0.00031975235046014932 0.00063057683410024882 0.0000000000000000 0.0000000000000000 0.0000000000000000 0.010000000000000000 202.47820935632063 0.0000000000000000 
0.0000000000000000 0.00062164896728019912 0.0012499999999999998 -1.7991276324419648e-17 -0.00038739495545981630 0.011576316864135449 202.54370359269558 -2.6476405642428886e-05 
0.0000000000000000 0.00031082448364009956 0.0024999999999999996 -4.0790302998593661e-15 -0.00027207577388319921 0.010048372482772737 202.60963027448736 6.1597026564486464e-05 
-0.00031975235046014932 0.00063057683410024882 0.0024999999999999996 0.00027686729261198236 -0.00054829781453058523 0.010082765179601263 202.60984644952904 1.9207277401705984e-05 
-0.00031528841705012441 0.00031528841705012441 0.0000000000000000 0.0000000000000000 0.0000000000000000 0.010000000000000004 202.47771225524107 0.0000000000000000 
0.0000000000000000 0.00031082448364009956 0.0012499999999999998 7.0956857938396699e-15 -0.00019321840531605840 0.011543882085799456 202.54342271432444 -6.6389336727854209e-05 
-0.00031975235046014932 0.00063057683410024882 0.0012499999999999998 0.00020267721612845398 -0.00039513645965413852 0.011589638704327684 202.54402790292482 -1.4133229604867755e-05 
-0.00031528841705012441 0.00031528841705012441 0.0024999999999999996 0.00027528340711255572 -0.00027528340710992322 0.010057537235552635 202.60973836200822 4.8942329782696851e-05 
-0.00031528841705012446 0.00031528841705012441 0.0012499999999999998 0.00019704465650124671 -0.00019704465650965050 0.011555824292325913 202.54372530862466 -5.0069708055459849e-05 
-0.00069195489093399677 0.0012287767927745938 0.0000000000000000 0.0000000000000000 0.0000000000000000 0.010000000000000000 202.48031828021470 0.0000000000000000 
-0.0011755764485346602 0.0011755764485346602 0.0000000000000000 0.0000000000000000 0.0000000000000000 0.010000000000000000 202.48180940378566 0.0000000000000000 
-0.00069195489093399677 0.0012287767927745938 0.0024999999999999996 0.00056934325337388973 -0.0010031908079772911 0.010177074678641852 202.61086324992979 -2.5935883931146779e-05 
-0.0011755764485346602 0.0011755764485346602 0.0024999999999999996 0.00092640909810399888 -0.00092640909809897534 0.010202241854653085 202.61141899994564 -2.1093919142462095e-05 
-0.00066572979592714764 0.00093414074684744616 0.0000000000000000 0.0000000000000000 0.0000000000000000 0.010000000000000004 202.47953028186032 0.0000000000000000 
-0.00093376566973432846 0.0012021766206546270 0.0000000000000000 0.0000000000000000 0.0000000000000000 0.0099999999999999985 202.48106384200020 0.0000000000000000 
-0.0012021766206546270 0.00093376566973432846 0.0000000000000000 0.0000000000000000 0.0000000000000000 0.010000000000000007 202.48106384200020 0.0000000000000000 